# vtk DataFile Version 4.2
vtk output
ASCII
DATASET UNSTRUCTURED_GRID
POINTS 4337 double
0 0 0 1 0 0 1 1 0 
0 1 0 0.016666666667 0 0 0.033333333333 0 0 
0.05 0 0 0.066666666667 0 0 0.083333333333 0 0 
0.1 0 0 0.11666666667 0 0 0.13333333333 0 0 
0.15 0 0 0.16666666667 0 0 0.18333333333 0 0 
0.2 0 0 0.21666666667 0 0 0.23333333333 0 0 
0.25 0 0 0.26666666667 0 0 0.28333333333 0 0 
0.3 0 0 0.31666666667 0 0 0.33333333333 0 0 
0.35 0 0 0.36666666667 0 0 0.38333333333 0 0 
0.4 0 0 0.41666666667 0 0 0.43333333333 0 0 
0.45 0 0 0.46666666667 0 0 0.48333333333 0 0 
0.5 0 0 0.51666666667 0 0 0.53333333333 0 0 
0.55 0 0 0.56666666667 0 0 0.58333333333 0 0 
0.6 0 0 0.61666666667 0 0 0.63333333333 0 0 
0.65 0 0 0.66666666667 0 0 0.68333333333 0 0 
0.7 0 0 0.71666666667 0 0 0.73333333333 0 0 
0.75 0 0 0.76666666667 0 0 0.78333333333 0 0 
0.8 0 0 0.81666666667 0 0 0.83333333333 0 0 
0.85 0 0 0.86666666667 0 0 0.88333333333 0 0 
0.9 0 0 0.91666666667 0 0 0.93333333333 0 0 
0.95 0 0 0.96666666667 0 0 0.98333333333 0 0 
1 0.016666666667 0 1 0.033333333333 0 1 0.05 0 
1 0.066666666667 0 1 0.083333333333 0 1 0.1 0 
1 0.11666666667 0 1 0.13333333333 0 1 0.15 0 
1 0.16666666667 0 1 0.18333333333 0 1 0.2 0 
1 0.21666666667 0 1 0.23333333333 0 1 0.25 0 
1 0.26666666667 0 1 0.28333333333 0 1 0.3 0 
1 0.31666666667 0 1 0.33333333333 0 1 0.35 0 
1 0.36666666667 0 1 0.38333333333 0 1 0.4 0 
1 0.41666666667 0 1 0.43333333333 0 1 0.45 0 
1 0.46666666667 0 1 0.48333333333 0 1 0.5 0 
1 0.51666666667 0 1 0.53333333333 0 1 0.55 0 
1 0.56666666667 0 1 0.58333333333 0 1 0.6 0 
1 0.61666666667 0 1 0.63333333333 0 1 0.65 0 
1 0.66666666667 0 1 0.68333333333 0 1 0.7 0 
1 0.71666666667 0 1 0.73333333333 0 1 0.75 0 
1 0.76666666667 0 1 0.78333333333 0 1 0.8 0 
1 0.81666666667 0 1 0.83333333333 0 1 0.85 0 
1 0.86666666667 0 1 0.88333333333 0 1 0.9 0 
1 0.91666666667 0 1 0.93333333333 0 1 0.95 0 
1 0.96666666667 0 1 0.98333333333 0 0.98333333333 1 0 
0.96666666667 1 0 0.95 1 0 0.93333333333 1 0 
0.91666666667 1 0 0.9 1 0 0.88333333333 1 0 
0.86666666667 1 0 0.85 1 0 0.83333333333 1 0 
0.81666666667 1 0 0.8 1 0 0.78333333333 1 0 
0.76666666667 1 0 0.75 1 0 0.73333333333 1 0 
0.71666666667 1 0 0.7 1 0 0.68333333333 1 0 
0.66666666667 1 0 0.65 1 0 0.63333333333 1 0 
0.61666666667 1 0 0.6 1 0 0.58333333333 1 0 
0.56666666667 1 0 0.55 1 0 0.53333333333 1 0 
0.51666666667 1 0 0.5 1 0 0.48333333333 1 0 
0.46666666667 1 0 0.45 1 0 0.43333333333 1 0 
0.41666666667 1 0 0.4 1 0 0.38333333333 1 0 
0.36666666667 1 0 0.35 1 0 0.33333333333 1 0 
0.31666666667 1 0 0.3 1 0 0.28333333333 1 0 
0.26666666667 1 0 0.25 1 0 0.23333333333 1 0 
0.21666666667 1 0 0.2 1 0 0.18333333333 1 0 
0.16666666667 1 0 0.15 1 0 0.13333333333 1 0 
0.11666666667 1 0 0.1 1 0 0.083333333333 1 0 
0.066666666667 1 0 0.05 1 0 0.033333333333 1 0 
0.016666666667 1 0 0 0.98333333333 0 0 0.96666666667 0 
0 0.95 0 0 0.93333333333 0 0 0.91666666667 0 
0 0.9 0 0 0.88333333333 0 0 0.86666666667 0 
0 0.85 0 0 0.83333333333 0 0 0.81666666667 0 
0 0.8 0 0 0.78333333333 0 0 0.76666666667 0 
0 0.75 0 0 0.73333333333 0 0 0.71666666667 0 
0 0.7 0 0 0.68333333333 0 0 0.66666666667 0 
0 0.65 0 0 0.63333333333 0 0 0.61666666667 0 
0 0.6 0 0 0.58333333333 0 0 0.56666666667 0 
0 0.55 0 0 0.53333333333 0 0 0.51666666667 0 
0 0.5 0 0 0.48333333333 0 0 0.46666666667 0 
0 0.45 0 0 0.43333333333 0 0 0.41666666667 0 
0 0.4 0 0 0.38333333333 0 0 0.36666666667 0 
0 0.35 0 0 0.33333333333 0 0 0.31666666667 0 
0 0.3 0 0 0.28333333333 0 0 0.26666666667 0 
0 0.25 0 0 0.23333333333 0 0 0.21666666667 0 
0 0.2 0 0 0.18333333333 0 0 0.16666666667 0 
0 0.15 0 0 0.13333333333 0 0 0.11666666667 0 
0 0.1 0 0 0.083333333333 0 0 0.066666666667 0 
0 0.05 0 0 0.033333333333 0 0 0.016666666667 0 
0.49166666667 0.98556624327 0 0.015226257951 0.49094414802 0 0.50833333333 0.01443375673 0 
0.98498566592 0.50869210525 0 0.39166666667 0.013182344919 0 0.014092194546 0.60771341243 0 
0.9840923776 0.39277745592 0 0.60833333333 0.98556624327 0 0.62525551531 0.014403078076 0 
0.014524354383 0.37488711367 0 0.98506695639 0.62483997793 0 0.375 0.98556624327 0 
0.29266828667 0.015774730045 0 0.98497301309 0.28990572128 0 0.70833333333 0.98556624327 0 
0.015390011072 0.70991624931 0 0.98676082106 0.72412772914 0 0.275 0.98556624327 0 
0.72541734167 0.012972421589 0 0.014904175112 0.2739124525 0 0.20833333333 0.01443375673 0 
0.79166666667 0.98556624327 0 0.98509148771 0.20956900989 0 0.01443375673 0.79166666667 0 
0.80833333333 0.01443375673 0 0.015124185708 0.19161866647 0 0.9850438905 0.80751432539 0 
0.19166666667 0.98556624327 0 0.85833333333 0.98556624327 0 0.014121029014 0.85833333333 0 
0.14166666667 0.01443375673 0 0.98759019215 0.14143693021 0 0.98556624327 0.875 0 
0.125 0.98556624327 0 0.87458265833 0.012972421589 0 0.01443375673 0.125 0 
0.98622299433 0.55822453833 0 0.54166666667 0.98556624327 0 0.425 0.98556624327 0 
0.325 0.98556624327 0 0.01443375673 0.44166666667 0 0.98640722406 0.67473971232 0 
0.575 0.01443375673 0 0.015869085572 0.53996752425 0 0.014840310146 0.32578846252 0 
0.675 0.01443375673 0 0.98536405319 0.34189743683 0 0.65833333333 0.98556624327 0 
0.98556624327 0.44166666667 0 0.015840429884 0.65614545051 0 0.341249325 0.012959117371 0 
0.44208400834 0.012972421589 0 0.015591057985 0.9104940068 0 0.90833333333 0.98556624327 0 
0.091666666667 0.01443375673 0 0.98502898658 0.093356035331 0 0.075 0.98556624327 0 
0.98512737035 0.92400478862 0 0.92486963505 0.014422260192 0 0.015067916236 0.075447124014 0 
0.94166666667 0.98556624327 0 0.014809050345 0.94182003332 0 0.98415303694 0.77243133732 0 
0.98670026381 0.84271289566 0 0.74166666667 0.98556624327 0 0.225 0.98556624327 0 
0.15833333333 0.98556624327 0 0.98502738383 0.057338738873 0 0.575 0.98556624327 0 
0.75833333333 0.01443375673 0 0.014488033782 0.24102048943 0 0.84166666667 0.01443375673 0 
0.015845777768 0.16042556336 0 0.01138198052 0.40795855664 0 0.825 0.98556624327 0 
0.54166666667 0.01443375673 0 0.45833333333 0.98556624327 0 0.98440739531 0.59321126922 0 
0.98426199828 0.47737493267 0 0.057749054996 0.014096423475 0 0.98589314221 0.17443379443 0 
0.01443375673 0.825 0 0.014673219727 0.74089537493 0 0.175 0.013551549901 0 
0.01443375673 0.575 0 0.98529504721 0.25833515233 0 0.475 0.01443375673 0 
0.24179703162 0.014422260192 0 0.98506173125 0.95977876091 0 0.041802883627 0.98564488817 0 
0.95829189206 0.013946587987 0 0.015287717588 0.043965525831 0 0.97492937718 0.98588713258 0 
0.015094954124 0.97346957302 0 0.9838998273 0.024922079696 0 0.025070622821 0.014112867418 0 
0.925 0.98556624327 0 0.91666666667 0.97113248654 0 0.9 0.97113248654 0 
0.90833333333 0.95669872981 0 0.89166666667 0.95669872981 0 0.9 0.94226497308 0 
0.88333333333 0.94226497308 0 0.89166666667 0.92783121635 0 0.875 0.92783121635 0 
0.88333333333 0.91339745962 0 0.86666666667 0.91339745962 0 0.875 0.89896370289 0 
0.85833333333 0.89896370289 0 0.86666666667 0.88452994616 0 0.85 0.88452994616 0 
0.85833333333 0.87009618943 0 0.84166666667 0.87009618943 0 0.85 0.8556624327 0 
0.83333333333 0.8556624327 0 0.84166666667 0.84122867597 0 0.825 0.84122867597 0 
0.83333333333 0.82679491924 0 0.81666666667 0.82679491924 0 0.825 0.81236116251 0 
0.80833333333 0.81236116251 0 0.81666666667 0.79792740578 0 0.8 0.79792740578 0 
0.80833333333 0.78349364905 0 0.79166666667 0.78349364905 0 0.8 0.76905989232 0 
0.78333333333 0.76905989232 0 0.79166666667 0.75462613559 0 0.775 0.75462613559 0 
0.78333333333 0.74019237886 0 0.76666666667 0.74019237886 0 0.775 0.72575862213 0 
0.75833333333 0.72575862213 0 0.76666666667 0.71132486541 0 0.75 0.71132486541 0 
0.75833333333 0.69689110868 0 0.74166666667 0.69689110868 0 0.75 0.68245735195 0 
0.73333333333 0.68245735195 0 0.74166666667 0.66802359522 0 0.725 0.66802359522 0 
0.73333333333 0.65358983849 0 0.71666666667 0.65358983849 0 0.725 0.63915608176 0 
0.70833333333 0.63915608176 0 0.71666666667 0.62472232503 0 0.7 0.62472232503 0 
0.70833333333 0.6102885683 0 0.69166666667 0.6102885683 0 0.7 0.59585481157 0 
0.68333333333 0.59585481157 0 0.69166666667 0.58142105484 0 0.675 0.58142105484 0 
0.68333333333 0.56698729811 0 0.66666666667 0.56698729811 0 0.675 0.55255354138 0 
0.65833333333 0.55255354138 0 0.65 0.56698729811 0 0.64166666667 0.55255354138 0 
0.63333333333 0.56698729811 0 0.625 0.55255354138 0 0.61666666667 0.56698729811 0 
0.60833333333 0.55255354138 0 0.6 0.56698729811 0 0.59166666667 0.55255354138 0 
0.58333333333 0.56698729811 0 0.575 0.55255354138 0 0.56666666667 0.56698729811 0 
0.55833333333 0.55255354138 0 0.55 0.56698729811 0 0.54166666667 0.55255354138 0 
0.53333333333 0.56698729811 0 0.525 0.55255354138 0 0.51666666667 0.56698729811 0 
0.50833333333 0.55255354138 0 0.65 0.53811978465 0 0.53333333333 0.53811978465 0 
0.5 0.56698729811 0 0.49166666667 0.55255354138 0 0.48333333333 0.56698729811 0 
0.475 0.55255354138 0 0.46666666667 0.56698729811 0 0.45833333333 0.55255354138 0 
0.45 0.56698729811 0 0.44166666667 0.55255354138 0 0.45 0.53811978465 0 
0.43333333333 0.56698729811 0 0.43333333333 0.53811978465 0 0.44166666667 0.52368602792 0 
0.425 0.52368602792 0 0.43333333333 0.50925227119 0 0.41666666667 0.50925227119 0 
0.425 0.49481851446 0 0.40833333333 0.49481851446 0 0.41666666667 0.48038475773 0 
0.4 0.48038475773 0 0.40833333333 0.465951001 0 0.525 0.58142105484 0 
0.44166666667 0.58142105484 0 0.425 0.58142105484 0 0.39166666667 0.465951001 0 
0.4 0.45151724427 0 0.38333333333 0.45151724427 0 0.39166666667 0.43708348754 0 
0.38333333333 0.48038475773 0 0.43333333333 0.59585481157 0 0.41666666667 0.59585481157 0 
0.375 0.43708348754 0 0.38333333333 0.42264973081 0 0.4 0.42264973081 0 
0.39166666667 0.40821597408 0 0.40833333333 0.40821597408 0 0.375 0.40821597408 0 
0.725 0.69689110868 0 0.38333333333 0.39378221735 0 0.36666666667 0.39378221735 0 
0.425 0.6102885683 0 0.40833333333 0.6102885683 0 0.375 0.37934846062 0 
0.35833333333 0.37934846062 0 0.41666666667 0.62472232503 0 0.4 0.62472232503 0 
[...]
CELL_DATA 8432
FIELD FieldData 3
radiation%20flux%20density 1 8432 double
7.8149692118e-21 1.5490856501e-20 10.211566072 6.0835793731e-23 78.035541614 7.2485211348e-23 2.8211424264e-20 11.812969965 2.853065673e-24 
76.156789333 1.5597727497e-20 4.1862333307e-21 3.0837142033e-21 0.004633451097 3.127227866 6.3299216731e-24 2.5944513506e-19 4.2124849974e-20 
2.9219215452e-23 6.5355292891e-24 35.799239951 109.27422952 1.9017021474e-21 1.2577778398 6.7123583476e-20 28.025463406 1.439831764e-19 
0.42672998746 0.071661606341 20.769622386 0.13508846755 3.9634534803e-21 0.96747704832 45.524026663 1.6201457853e-19 4.0257205602 
98.005094422 0.018676343243 1.0443346971e-22 5.472262845e-20 7.1456988031e-21 0.0019969064606 10.751886245 85.795083786 3.3527099018e-23 
0.0054956592847 5.1132904097 0.071134130514 80.484269115 103.54152954 1.2651600661e-19 109.28050642 38.577141082 5.746435458e-20 
24.492330308 1.4233439208e-23 0.097895214749 0.0032799079743 0.49774126368 1.0811694931e-20 0.016011171774 2.3397371804e-21 3.6924104416e-20 
2.5118394412 5.0226796204e-20 1.1481623461e-19 49.706771701 7.480846543e-20 1.6235084976e-19 2.1326509322e-19 93.16475754 3.104996928 
3.4293776588e-20 2.2041839948e-22 0.051364687311 0.0025199949031 17.751507109 0.01686180055 0.099602603465 1.336642208e-20 2.7997855064e-20 
8.6442649977e-21 106.66683427 2.530443402e-19 64.806307331 1.8976463179e-19 9.355977345 1.1269490288e-22 112.69717288 0.0050844332525 
100.89622983 1.2908667086e-21 40.256605426 36.625517613 106.57113137 1.9952230221e-23 1.6955098784e-21 1.2549638204e-19 0.18056295197 
112.56210974 1.7834595446e-20 1.1044840545 6.8721639445 23.877009852 0.011009909088 0.81499697419 1.3166813404e-19 0.0079429610719 
31.72873375 4.6567678586e-23 1.1104690342e-19 47.097295452 106.45607548 4.4471036363e-20 15.920195899 2.5396256027e-19 6.1122815404e-23 
0.051614381826 7.531752277 5.7746548032e-21 2.2912831973e-19 79.225527292 1.6070271362 0.071491777241 0.0012321746464 2.6324296637e-24 
1.4678214234e-23 8.974751767e-20 1.2766009174e-22 69.257636037 1.2994096238e-20 5.45053083 9.882254712 0.0012686375578 3.6548624946e-21 
2.9892376391e-21 5.5670937203e-22 3.6017438127 6.4999520099e-21 8.1070688558e-20 0.68502739316 2.1266061478e-23 4.0531200377e-20 36.193464672 
105.22352958 4.8749287813e-23 1.9820767282e-20 6.8043068314e-24 4.1344713746e-21 7.214008034e-20 1.0426246617e-20 0.54498665682 5.2026411926e-20 
18.603928492 3.2109169787e-23 2.7427255075e-19 3.1998317413e-23 1.2494417262e-19 0.1011323886 14.447365672 2.1511713744e-20 1.7174155045e-21 
0.0017777849131 0.0087720325224 1.5613850719e-19 59.068790643 83.957302384 31.026815054 0.31343125294 12.989783444 1.9091553962e-20 
8.3707269002 99.816215045 0.021319990356 5.95827791e-19 52.640706503 0.9171530839 0.016893280722 0.024875992019 6.1375488422e-24 
2.215249582e-21 0.0074031432613 0.013193222065 0.0095287504123 0.0088235719322 1.2335434026e-19 91.08897235 6.0292362094e-19 0.0084193659016 
0.010715508318 0.0055807975643 0.042596899563 0.0040595701615 1.9467169348e-21 1.8050176588e-05 1.7872844812e-05 6.23185911e-05 0.0010958290049 
1.466764572e-05 0.00058634750946 9.8570316334e-07 6.76961887e-07 4.926165953e-07 1.0093660753e-07 0.0011140118308 1.3354861423e-08 2.9858246927e-11 
3.6776687038e-13 3.2265080769e-12 1.2610190832e-13 1.2341544276e-14 1.6163202335e-16 8.5423279894e-17 5.1931589329e-22 2.7099152154e-21 2.9349146073e-22 
0.054139155373 0.029036428787 5.2091820953e-22 0.014423184247 5.9838239297 1.3336325e-18 1.3418477165e-18 9.2939666665e-20 7.7569508038e-19 
4.908342733e-20 1.4486591133e-18 3.5196926567e-18 7.6277698842e-18 5.9479626727e-18 1.8509452024e-17 2.5859520836e-16 3.0535876856e-17 1.8248830031e-19 
9.5400472229e-19 6.6364384345e-19 4.2033157976e-16 7.5390490186e-19 6.9265135165e-14 9.7979176632e-16 1.6587100252e-15 6.2950749914e-18 1.1277960197e-17 
6.480366944e-18 4.27079132e-14 7.5282188769e-13 8.6684692462e-18 1.2942207398e-14 4.9101665457e-13 3.4574718767e-18 1.0945725727e-16 2.3189956e-19 
1.6183613845e-12 2.3660542637e-11 4.5577590198e-18 7.3111441436e-17 2.3754452312e-12 6.8298363838e-18 2.661594361e-19 3.2306794407e-19 1.9075546981e-14 
5.0458868339e-13 4.7728263298e-18 1.855358124e-18 5.3186680352e-19 3.814670801e-15 1.5699754968e-15 7.4277231072e-13 2.7263037806e-10 5.7035730781e-15 
3.1509557991e-19 7.0034116946e-12 1.0495840355e-15 2.819593811e-17 3.8323688616e-10 6.9936818899e-11 1.3615375997e-19 4.5120031283e-14 7.4125497937e-20 
1.5299577837e-13 7.7226605805e-10 4.0251104947e-18 8.1179061012e-20 2.9062532806e-20 6.0300586915e-09 1.0704208174e-09 5.7584732315e-10 1.2604894668e-19 
7.683541003e-09 4.9001964774e-12 3.6673695195e-10 2.98969043e-11 0.00064866375925 2.863560815e-09 1.6835524256e-10 5.7033212153e-21 1.4784931095e-20 
1.4859250127e-08 4.53161808e-05 1.5412394679e-23 1.9746082396e-08 5.3069979582e-09 1.3867926297e-12 1.0264369359e-08 3.3985203156e-19 1.6798625664e-20 
3.4264551244e-11 2.8886433189e-18 4.3535736357e-08 3.7666681712e-08 1.5453807021e-08 4.7553514786e-12 2.7022515388e-17 7.2262325405e-05 2.077410184e-17 
3.0756475581e-09 3.4188774274e-17 4.7726792707e-17 0.001783705812 8.1917488812e-08 1.5533631662e-17 1.7533639226e-11 0.19218380011 4.4329775704e-09 
2.14777664e-10 5.6348456816e-19 7.7773735816e-05 1.3345179067e-10 9.0998096002e-11 1.0438158986e-07 0.0026912612356 2.1276571578e-09 3.4758736415e-09 
0.026158677814 5.7013579717e-09 2.892153218e-05 0.32507006187 3.2137315526e-21 2.4341417934e-07 1.446669563e-10 1.1781956168e-06 1.9372809584e-07 
4.9233250166e-05 1.205701867e-07 4.0200315145e-11 1.0579059933e-18 0.019286967976 0.013177029827 3.3690109189e-08 0.00065487037773 9.4225577933e-12 
1.4046929884e-19 0.018839555517 7.0732812104e-08 5.2436909862e-12 2.5856893482e-20 9.6911966696e-19 0.74926327829 1.8195016269e-10 4.9356514642e-08 
2.0324371536 3.1755639923e-06 1.1448223477e-09 5.075807324e-18 0.025197398041 7.4184057162e-18 99.404264189 0.03450277638 1.0648480228e-11 
8.2846305202e-18 0.88315462238 2.9481048796e-08 2.7144761205e-21 2.2376449584e-07 2.6528092571e-12 1.4596135804e-06 0.15344494988 0.91674062585 
2.3839894093e-18 3.5582209462e-07 8.2908695558e-12 0.00036797818523 2.5202050373e-12 1.4503187636e-15 3.1226627445e-19 0.00022036565891 0.25292590261 
1.2750428342 0.069478482111 6.6475976291e-14 1.7011132793e-19 8.240273877e-09 0.12061783872 7.7093988552e-12 1.5335075057 2.5844142745 
0.086513333079 1.1948781571e-11 46.790276 3.0625077938e-15 0.57846783737 0.24171882692 0.088840813542 6.1927503904e-11 2.0153678082e-14 
5.7630691484e-12 0.0067755601267 0.0009653150272 2.3154104839e-13 1.5469998486e-18 8.075706888e-18 5.8371510115e-16 0.00015794378127 44.757444597 
4.8917987753e-21 1.1336955054e-09 0.00057048176076 0.32334822984 2.1655636578e-19 0.010367413414 0.00011010519618 1.4602358251e-09 0.0095102323727 
8.2356126573e-08 2.150975821e-10 1.1607906707 1.2271545273e-09 0.31716963096 0.00034635206931 0.0031512159808 7.0189434935 0.59482595449 
7.742455957e-05 6.2178980009e-17 39.331371811 0.099223129748 2.5994818594e-06 3.6886384913e-21 5.5627101716e-16 1.8781656251e-17 0.43988406241 
1.5198768778e-06 6.5845478215e-19 0.0042007836672 0.015600370917 0.0070024747156 102.64188433 0.83280501601 1.0721298305e-10 1.7585744125e-10 
103.56582468 8.7144716532 6.3685343975 3.84363144 0.040455626075 0.00091392983837 30.378436502 35.100124315 3.0826712792e-19 
4.4560527566e-07 0.29873857603 6.5252737031e-07 26.934545478 8.7998197056e-12 8.2396529163e-11 0.0012367627353 6.952257114e-15 1.7068490631e-11 
103.01551621 3.9510064015e-19 1.3913173725e-16 0.00088606579089 2.065803379e-17 2.1336551473e-06 1.8657995122e-10 1.9497568653 0.035737829931 
98.10758599 1.369359372e-14 1.8793317328e-18 3.7589971979e-08 4.9478708963 4.621609982e-17 5.9659190479e-10 0.027181557283 2.8172193133e-09 
2.6050060225e-10 1.613314513 1.9958803947 0.0064672567638 1.1357204892e-15 0.0018614445803 2.0633740433e-11 4.0747997555e-21 3.230410595e-07 
8.7288340338e-11 0.66594424274 1.5306877795e-13 0.0021276178234 10.483566201 0.56283559591 2.4208739152e-15 4.8741903357e-15 0.05103378058 
5.1385843145e-09 0.0039122305022 0.013760629395 3.7995336451e-06 5.2598438667e-06 1.6286507748 1.6425224697e-11 0.3766690371 4.9258594433 
3.335224374e-15 4.5392281393e-09 6.3559283805 9.4410646649e-14 0.00077461468843 0.00099397678843 0.00059765607972 23.00363583 0.00024827394081 
0.034954196246 7.9297767838e-19 5.9025694684 3.2223370305e-18 5.9611718045e-20 7.3821302542e-09 0.11551952301 4.8328640807e-05 6.8901970958e-05 
4.4545614931e-12 5.0418875825e-12 0.98886124967 8.5565477249e-06 10.983749442 0.63849685671 1.0499674595e-07 5.3674410908 0.16904361547 
2.2091359922e-21 3.1379525285e-12 2.4990945084e-07 1.1750108948e-12 3.9982745734 0.0066624107635 8.6096987198e-20 0.011917497206 1.2918259269e-11 
8.8358415539 0.00015933061947 0.46767360885 9.460417036e-09 6.6382962152e-17 2.5273445338e-23 3.2109375689 294.00998735 0.48058225793 
6.5131704459e-07 1.9839500248e-09 4.9999509699e-08 9.4517401327e-09 99.869744522 1.1990764035 1.6805966661e-05 1.1428590636e-17 6.1481007917e-20 
0.020769065179 0.07733554906 5.2583143389e-09 10.339239675 9.6360761353 2.2532253607e-13 5.9972254843 3.452159347e-11 7.095986784e-13 
1.6646535809e-07 4.6722060902 20.121212336 6.0119800886 0.0045610797052 0.023541827553 1.3952345383e-05 35.235010605 0.022558452834 
2.3398133637e-05 0.0021210748498 46.331167437 9.4942034561e-17 2.0965663077e-16 9.0661145532 2.3002158037e-09 7.5997327083e-13 8.7648400356e-18 
119.38359345 0.00011195421094 0.0038271304441 3.7174582731e-18 0.18141180901 1.1212474921e-11 0.10988838881 3.557838719e-13 4.2917108253e-11 
4.3571215075e-08 5.9391507861e-13 6.2005524593e-12 16.95276704 3.4452322603e-11 10.27817373 8.6186596319 7.771366968 9.238347925e-06 
3.0846097698e-12 2.9716149559e-12 5.9118779256e-07 0.02927891293 2.3668706266e-19 4.5638506466e-11 3.6928135834e-10 10.050754694 4.8200225877 
4.272864717e-14 28.144111202 2.5392838494 1.4659753146 9.4019462246e-09 0.97954574471 3.3256834935e-13 1.5114723784 0.42628463587 
2.9184552142 19.501477783 3.9559375585e-15 7.4424138118 0.0079016815973 0.0021558422025 0.0016470492796 0.17820919069 3.4589227264e-07 
9.2678141733e-06 0.0013356655612 1.5518577043e-19 3.1367638655 1.0245819579e-14 0.22598023555 9.8695117791e-13 4.6790887183e-07 3.5694095404e-14 
0.07308524067 0.052021692308 1.2858661855e-07 0.13303842379 0.064415424992 0.094551266773 2.8946447322e-08 5.1041908603e-06 70.363096626 
95.904288517 2.1404618585e-14 1.2265821678e-21 0.016608866713 1.9851504342e-19 5.3930442096 4.124965863 1.6709289757e-11 9.0855093604e-16 
1.049833018e-08 6.1272526837e-12 2.9079432865e-09 7.4183276653e-08 1.5729495165 1.3389122734e-17 2.0294395713e-12 8.4247760302e-15 6.7343265963e-05 
4.3768920742e-08 2.9179413843e-16 3.0665279587e-14 0.050346976841 0.0011167566606 0.0057860347064 9.722295549 4.0945900674e-12 6.1662463286 
7.1324038323e-09 11.299033121 1.6883339648 2.8719044084e-05 8.4181986848e-07 2.6234436018e-07 0.58176601344 0.85845413532 1.7605116076e-06 
9.5115654807 9.9213322749 266.59516454 2.0284777601e-19 4.3592485323e-06 0.57039917601 3.9606526536 1.3960011789 9.6564879072e-07 
2.158688414e-19 9.9271765264e-14 5.4596597498e-13 3.9933061059e-09 3.269973624e-21 1.1741665805e-18 1.1079003613e-13 5.5959967331e-12 0.00010509223968 
0.0095237591093 1.4839494145e-06 1.3225812773e-11 1.2321312495 1.4049564234e-21 0.0099266962282 7.2059235074e-11 0.00013603984159 2.3457443436e-08 
2.1691562298e-06 1.1246876975e-10 4.6239672212e-06 1.2126680899e-06 3.4837422613 0.0012752917976 5.0432054493e-13 6.9251080498e-06 6.227933098e-14 
11.406984619 0.001295636298 2.0393515e-05 0.00014865540132 7.4205154561e-13 2.0449390433e-15 3.2802189092e-05 2.6698184277e-05 1.0526510394 
5.621126713 1.9701361781e-05 3.9183474226e-06 24.127528465 8.6650571813e-20 9.9810031368e-10 2.9840637865e-18 3.2526251849e-05 0.00063266769551 
0.078718136043 1.6862833287e-19 2.7836492633e-05 1.8897191528e-18 0.036747735383 0.42716234268 0.028554776025 1.562301827e-10 7.8791056958e-09 
8.1835018054e-05 5.3253039952e-09 3.787657782e-12 2.0054228301e-11 0.0009075508389 135.96332424 5.9346088142e-12 11.336449572 17.94711139 
1.7503263743e-15 2.0286821114e-14 17.663622854 6.9098593473e-16 2.8208490012e-16 1.0756195967e-19 67.866510863 26.274288179 2.0203219657e-08 
0.00028500536252 5.0681555895e-19 6.6882033137 6.4748443908e-21 3.5613467036e-18 0.00018497247903 3.7571708215e-05 2.0876740827e-20 0.0024488075272 
0.51349001631 7.4975973143 1.1385092759e-15 46.562682311 0.071402384457 0.71723583455 1.2700005701 0.035181085298 9.2534311663 
6.8493654207e-14 1.7660861075e-08 7.4760605187e-15 4.9381723352e-12 1.1721210828e-19 1.9905011153e-15 8.9700739048 0.029255804505 9.9269739091e-05 
76.811586517 1.647541201e-14 8.2715143394 2.4963340156e-19 4.6663892506e-05 4.7562889023e-05 1.1534185652e-15 8.3213702879e-15 1.6351171425e-12 
7.0969749868 11.942097478 2.5634132734 0.00020452294722 4.3180879978e-14 1.9336973597e-06 4.6263990782e-12 6.6708280848e-05 1.6968531552e-05 
2.1590363673e-07 2.4882809074e-15 0.25021919053 5.8761724198e-19 3.4635090821 6.4021107479e-05 0.0018378524686 14.249141995 0.011905132175 
10.011026084 0.0016778816307 1.234568125 1.4054222406 3.3318703133e-10 1.3430952289e-15 0.10770805164 2.9508227553e-08 0.0012519950213 
9.9319358204 1.6364426081e-09 28.305103806 0.021126950276 34.109930254 0.0017306188655 3.0066653343e-12 1.1354788718e-05 2.0834755984e-18 
7.9508848331 0.92721694595 2.5757678435 4.7621432293e-20 86.842818831 2.0668169306 0.65145426721 161.97497497 9.2732076835e-09 
6.1464319197e-09 6.7615566874e-20 14.61745598 1.224027145e-05 0.00025220775338 0.026391476129 1.1887415066e-08 0.13556351664 5.8247691303 
3.4146084473 0.0064765510663 1.6805687467e-15 0.0067547147003 1.1287131487e-08 3.0405845643 0.73421708936 9.2101433367e-07 0.00059644937949 
2.5258089696e-12 3.8129898759e-15 1.5982495292e-05 4.5895103705e-06 0.00055079009344 9.2730992635e-08 0.00012831981834 7.0553948287e-06 7.8608329014e-09 
0.00087721606009 31.600839302 0.010122562855 0.019966442229 3.3857223968e-20 5.8645444177e-11 3.7166147783e-12 0.049137247994 1.6855159596e-08 
0.0016908069667 1.0660898097e-17 0.1011511828 4.1937036799 2.1908789552e-12 0.00051766074182 5.9718313118e-17 1.2815523757e-19 5.0251451929e-05 
0.0088667728418 3.8218383997e-15 2.8708749455e-20 2.1786139916e-06 3.2165446267 4.7772301314e-09 2.7199430386 0.00080353412228 1.2544023396e-12 
1.7646093167e-11 5.890618759e-11 3.2866620989e-06 5.4102547035e-13 1.284490635e-18 2.8437966797e-18 7.2424005254e-12 2.5168244371e-13 3.0206484991e-12 
1.6621627114e-19 1.3200170238e-11 3.4975578686 2.5089939717e-11 3.9965675304e-16 65.799149147 0.00031576802977 5.7008485016e-08 5.069624078e-08 
1.094135942e-14 2.8370504391e-17 2.2061552654e-08 4.0703052189e-14 0.00072941208755 15.916803787 2.6132147769e-06 1.7438574702e-15 27.264113869 
0.96540773006 0.42676725936 0.032065735842 0.00040295018326 6.9281694121e-16 35.467333483 9.8745092276e-09 21.715387483 0.093036757826 
1.7993026293e-09 5.9367418716e-15 9.366029122e-11 0.18313947334 0.001035793217 0.00012307658024 1.3053725471 0.013700419565 1.2611449559e-05 
1.6234239625e-08 7.1050029774 3.442578244e-05 2.7205452657 2.670893367e-12 4.6095993111e-06 0.0096905350033 0.11128244435 5.2947404345e-16 
9.3254101457e-05 0.0013376113932 1.3333381501e-17 0.012283178424 1.0004677047e-20 3.5976956117e-13 5.5466770163e-17 2.088368721e-07 0.037935334574 
9.8843019453e-07 5.7789972062e-05 0.0015480055123 1.3877317173e-16 0.00038640775485 6.8029336385e-14 1.5283037091e-20 1.7579689683e-08 0.080202996079 
15.783179122 4.5049058081e-14 2.791434401e-12 8.7095275557 0.00012930786815 2.9101973621e-11 1.1834260975e-16 11.333193842 0.0014256479238 
24.868433069 5.3570657862e-15 8.6082859201e-21 0.0044314759005 3.9434254833e-17 313.91662769 29.493065677 7.4264223845e-10 7.3263811202e-06 
6.5421226036e-18 2.029951096e-15 6.559796932e-06 5.3956214093e-20 1.3104740301 32.892371075 2.6211189352e-05 0.0010810205298 6.8161614912e-09 
0.28357148812 9.2305770185e-07 0.0090115749208 14.213847982 1.6447133393e-09 2.654969138e-15 2.7771185305e-05 9.5458981123e-09 33.577482689 
1.8096765819e-15 11.858359923 0.24176934074 5.3348577341e-08 0.0042960807327 3.8162116436e-16 11.30507011 6.3010653307e-20 7.9103834172 
25.367814563 7.4663283138e-16 1.2329641208e-14 1.0747351708e-07 55.939606733 1.7974688985e-14 41.118467001 18.975911603 6.0095213567e-18 
1.6114998059e-12 1.497702772e-10 4.7594145608e-16 6.7146816223e-10 0.052221973868 1.1165574904e-16 0.0016782593455 2.3998837882e-17 3.9664867125e-19 
1.0662584934e-10 2.2732645419e-16 1.7852019019e-14 3.2719644614 7.7780022726 2.4663845546e-05 82.932173131 0.001274974881 4.4400380432e-12 
3.3259326951e-18 0.000238038235 7.5427098261e-12 2.3166494238e-18 2.1608020145 1.0955812293e-07 2.4517097585e-06 2.171504622e-17 0.077453884903 
0.10036462601 0.00060007259608 12.862074984 15.247371826 1.5486851611e-18 9.2177664261e-16 1.0300718496e-11 2.2090364662 3.6057119262 
3.6835906432e-05 0.0099803184844 0.00065898783951 0.00070124049736 40.178183921 4.9266056358e-11 0.010477933005 0.77507825779 1.1672645558 
3.2106505275e-06 16.360745033 0.00023450965627 0.020766035314 1.5942054104e-12 5.5782486547e-06 3.941834687e-21 21.384426585 0.092921516735 
0.79216355491 5.5472870108e-13 1.4461912489e-09 0.92911494815 3.9318860436e-14 0.00028230233222 1.7702850009 3.681056145e-07 3.3283735958e-16 
0.030098025288 5.6141710102e-24 5.8712304762e-09 0.025957937275 2.1005219674e-05 8.7532747932e-18 0.30690078646 0.00088224319768 0.0025328130044 
12.724018267 14.962612036 40.900695034 1.8596781765e-13 5.0675818709 5.2492608857e-07 2.7341367665e-06 1.7795360505e-09 4.1765851047e-20 
3.2913860905 1.5637292396e-13 1.0785883304e-11 2.6935107741e-15 1.9625822967e-20 0.043556018807 0.56223462884 1.4334444657e-19 0.74726265676 
3.1565518228 0.0027714730794 0.00081844276736 6.190238031e-17 4.1562207848e-21 0.051462519843 8.4235239229e-06 3.2693323956e-21 0.14364199257 
1.4337722981e-09 0.00023771094993 0.051417828053 0.0039295766845 67.57850025 31.074534541 6.7196649284e-06 7.5293797011e-13 0.1058017673 
0.0017717614618 0.21351696116 4.0376897735e-16 26.399557269 92.668945041 0.52585270402 0.30553866855 5.5470877655e-11 2.8501463688e-14 
5.4642771608e-16 4.4044582176 6.3437691864 0.031727709226 0.0050341881185 1.906362726e-14 0.073099278841 0.17865274106 5.102458071e-15 
0.0014496869357 0.0003724766635 0.0012520447896 0.055703428304 0.0012782081127 0.0020014847962 0.00036336142821 1.107158197e-16 16.131128119 
0.42158695881 3.2529734859 3.582685749e-05 0.78082638104 2.4550792385e-09 45.742052196 4.1518880109e-13 2.5683779267e-07 0.26250161012 
0.042158640223 2.622091213e-06 6.9190461704 9.7882965286e-15 6.7780806437e-13 3.7343872484e-12 16.486543199 4.4012881225e-10 6.0085664142e-09 
8.5992602484e-07 2.2809307703e-06 8.7649827421e-08 1.5527436247e-07 2.9450950783e-09 1.275543649e-10 6.3767868866e-12 0.00033500721524 5.0983181781e-10 
1.5504970942e-13 4.3956828434e-07 5.6983532346e-06 5.0310869985e-14 3.2009041699e-06 3.5219360983e-13 0.00118180007 0.0017294203367 210.63489754 
1.0488763468e-12 2.1327260047e-19 0.037893906566 0.0029212985914 6.6370338113e-14 1.7207969741e-15 94.432973702 2.7262667468 0.00024197177456 
8.6044783954e-06 3.8602687363e-13 20.897015701 1.6753218523e-15 0.00043405020031 1.5053385298e-09 2.0824495029e-14 22.464435182 7.9033901896e-21 
12.691515939 3.655658167e-09 8.1282479796e-12 0.0014769725528 4.9879257166e-12 2.0124391862e-08 2.9767112775e-15 1.294118258e-15 2.0883613721e-19 
1.8070317211e-08 8.8961950359e-16 10.065387806 5.5650393593e-07 9.2375166186 4.2517812523 1.012673327e-19 1.3789991731e-17 9.5558973924e-15 
0.0011627807718 50.817531602 3.761615198e-18 1.778865853e-05 5.7970632931e-08 7.1252374216e-07 4.0649925748 2.307006484e-05 1.6979635383e-15 
3.3779226421e-08 4.569960866e-11 2.3459673971 9.0297164511e-11 3.1403720059 1.6731307067e-11 6.6065964912e-13 1.7447882495e-15 0.0077162189969 