# vtk DataFile Version 4.2
vtk output
ASCII
DATASET UNSTRUCTURED_GRID
POINTS 565 double
0 0 0 7 0 0 0 7 0 
7 7 0 1 1 0 2 1 0 
2 2 0 1 2 0 5 2 0 
5 1 0 6 1 0 6 2 0 
3 2 0 3 1 0 4 1 0 
4 2 0 5 3 0 6 3 0 
6 4 0 5 4 0 5 5 0 
4 5 0 4 4 0 3 4 0 
3 5 0 2 5 0 2 4 0 
1 4 0 1 3 0 2 3 0 
2 6 0 1 6 0 1 5 0 
6 5 0 6 6 0 5 6 0 
3 3 0 4 3 0 0.38888888889 0 0 
0.77777777778 0 0 1.1666666667 0 0 1.5555555556 0 0 
1.9444444444 0 0 2.3333333333 0 0 2.7222222222 0 0 
3.1111111111 0 0 3.5 0 0 3.8888888889 0 0 
4.2777777778 0 0 4.6666666667 0 0 5.0555555556 0 0 
5.4444444444 0 0 5.8333333333 0 0 6.2222222222 0 0 
6.6111111111 0 0 0 6.6111111111 0 0 6.2222222222 0 
0 5.8333333333 0 0 5.4444444444 0 0 5.0555555556 0 
0 4.6666666667 0 0 4.2777777778 0 0 3.8888888889 0 
0 3.5 0 0 3.1111111111 0 0 2.7222222222 0 
0 2.3333333333 0 0 1.9444444444 0 0 1.5555555556 0 
0 1.1666666667 0 0 0.77777777778 0 0 0.38888888889 0 
7 0.38888888889 0 7 0.77777777778 0 7 1.1666666667 0 
7 1.5555555556 0 7 1.9444444444 0 7 2.3333333333 0 
7 2.7222222222 0 7 3.1111111111 0 7 3.5 0 
7 3.8888888889 0 7 4.2777777778 0 7 4.6666666667 0 
7 5.0555555556 0 7 5.4444444444 0 7 5.8333333333 0 
7 6.2222222222 0 7 6.6111111111 0 6.6111111111 7 0 
6.2222222222 7 0 5.8333333333 7 0 5.4444444444 7 0 
5.0555555556 7 0 4.6666666667 7 0 4.2777777778 7 0 
3.8888888889 7 0 3.5 7 0 3.1111111111 7 0 
2.7222222222 7 0 2.3333333333 7 0 1.9444444444 7 0 
1.5555555556 7 0 1.1666666667 7 0 0.77777777778 7 0 
0.38888888889 7 0 1.3333333333 1 0 1.6666666667 1 0 
2 1.3333333333 0 2 1.6666666667 0 1.6666666667 2 0 
1.3333333333 2 0 1 1.6666666667 0 1 1.3333333333 0 
5 1.6666666667 0 5 1.3333333333 0 5.3333333333 1 0 
5.6666666667 1 0 6 1.3333333333 0 6 1.6666666667 0 
5.6666666667 2 0 5.3333333333 2 0 2.3333333333 2 0 
2.6666666667 2 0 3 1.6666666667 0 3 1.3333333333 0 
3.3333333333 1 0 3.6666666667 1 0 4 1.3333333333 0 
4 1.6666666667 0 4.3333333333 2 0 4.6666666667 2 0 
5 2.3333333333 0 5 2.6666666667 0 5.3333333333 3 0 
5.6666666667 3 0 6 3.3333333333 0 6 3.6666666667 0 
5.6666666667 4 0 5.3333333333 4 0 5 4.3333333333 0 
5 4.6666666667 0 4.6666666667 5 0 4.3333333333 5 0 
4 4.6666666667 0 4 4.3333333333 0 3.6666666667 4 0 
3.3333333333 4 0 3 4.3333333333 0 3 4.6666666667 0 
2.6666666667 5 0 2.3333333333 5 0 2 4.6666666667 0 
2 4.3333333333 0 1.6666666667 4 0 1.3333333333 4 0 
1 3.6666666667 0 1 3.3333333333 0 1.3333333333 3 0 
1.6666666667 3 0 2 2.6666666667 0 2 2.3333333333 0 
2 5.3333333333 0 2 5.6666666667 0 1.6666666667 6 0 
1.3333333333 6 0 1 5.6666666667 0 1 5.3333333333 0 
1.3333333333 5 0 1.6666666667 5 0 5.3333333333 5 0 
5.6666666667 5 0 6 5.3333333333 0 6 5.6666666667 0 
5.6666666667 6 0 5.3333333333 6 0 5 5.6666666667 0 
5 5.3333333333 0 3 2.3333333333 0 3 2.6666666667 0 
3.3333333333 3 0 3.6666666667 3 0 4 2.6666666667 0 
4 2.3333333333 0 3.6666666667 2 0 3.3333333333 2 0 
2 3.3333333333 0 2 3.6666666667 0 2.3333333333 4 0 
2.6666666667 4 0 3 3.6666666667 0 3 3.3333333333 0 
2.6666666667 3 0 2.3333333333 3 0 4 3.3333333333 0 
4 3.6666666667 0 4.3333333333 4 0 4.6666666667 4 0 
5 3.6666666667 0 5 3.3333333333 0 4.6666666667 3 0 
4.3333333333 3 0 1.2951917063 1.5 0 1.7050506247 1.5 0 
1.5000403885 1.2474399183 0 1.5000403885 1.7525600817 0 1.7576802451 1.7576802451 0 
1.2423197549 1.2423197549 0 1.7576802451 1.2423197549 0 1.2423197549 1.7576802451 0 
1.5 3.7048082937 0 1.5 3.2949493753 0 1.2474399183 3.4999596115 0 
1.7525600817 3.4999596115 0 1.2423197549 3.7576802451 0 1.7576802451 3.2423197549 0 
1.7576802451 3.7576802451 0 1.2423197549 3.2423197549 0 1.7048082937 5.5 0 
1.2949493753 5.5 0 1.4999596115 5.2474399183 0 1.4999596115 5.7525600817 0 
1.2423197549 5.2423197549 0 1.7576802451 5.7576802451 0 1.7576802451 5.2423197549 0 
1.2423197549 5.7576802451 0 2.5 2.297798335 0 2.5 2.7026766338 0 
2.2474399183 2.5000791615 0 2.7525600817 2.5000791615 0 2.2423197549 2.7576802451 0 
2.7576802451 2.7576802451 0 2.2423197549 2.2423197549 0 2.7576802451 2.2423197549 0 
2.5 4.6985523849 0 2.5 4.2971333787 0 2.2474399183 4.4992809606 0 
2.7525600817 4.4992809606 0 2.7576802451 4.2423197549 0 2.2423197549 4.7576802451 0 
2.7576802451 4.7576802451 0 2.2423197549 4.2423197549 0 3.5 1.7048082937 0 
3.5 1.2949493753 0 3.2474399183 1.4999596115 0 3.7525600817 1.4999596115 0 
3.2423197549 1.2423197549 0 3.2423197549 1.7576802451 0 3.7576802451 1.2423197549 0 
3.7576802451 1.7576802451 0 3.5 3.2951917063 0 3.5 3.7050506247 0 
3.2474399183 3.5000403885 0 3.7525600817 3.5000403885 0 3.2423197549 3.2423197549 0 
3.7576802451 3.7576802451 0 3.2423197549 3.7576802451 0 3.7576802451 3.2423197549 0 
4.5 2.2951917063 0 4.5 2.7050506247 0 4.2474399183 2.5000403885 0 
4.7525600817 2.5000403885 0 4.7576802451 2.2423197549 0 4.2423197549 2.2423197549 0 
4.7576802451 2.7576802451 0 4.2423197549 2.7576802451 0 4.6985523849 4.5 0 
4.2971333787 4.5 0 4.4992809606 4.7525600817 0 4.4992809606 4.2474399183 0 
4.7576802451 4.7576802451 0 4.2423197549 4.7576802451 0 4.7576802451 4.2423197549 0 
4.2423197549 4.2423197549 0 5.2951917063 1.5 0 5.7050506247 1.5 0 
5.5000403885 1.2474399183 0 5.5000403885 1.7525600817 0 5.2423197549 1.7576802451 0 
5.7576802451 1.2423197549 0 5.2423197549 1.2423197549 0 5.7576802451 1.7576802451 0 
5.5 3.2951917063 0 5.5 3.7050506247 0 5.7525600817 3.5000403885 0 
5.2474399183 3.5000403885 0 5.7576802451 3.2423197549 0 5.2423197549 3.7576802451 0 
5.7576802451 3.7576802451 0 5.2423197549 3.2423197549 0 5.6985523849 5.5 0 
5.2971333787 5.5 0 5.4992809606 5.2474399183 0 5.4992809606 5.7525600817 0 
5.2423197549 5.2423197549 0 5.7576802451 5.2423197549 0 5.7576802451 5.7576802451 0 
5.2423197549 5.7576802451 0 3.7485855544 6.6942501976 0 2.2872656985 5.8378913721 0 
4.7119339728 5.8373697827 0 2.8759754619 6.5951459244 0 2.8162186717 5.3084308736 0 
3.186129153 5.2921568433 0 2.9979032054 5.5850721589 0 3.3402908331 5.6008010525 0 
4.1834772538 5.3076746294 0 4.7107049802 6.1677403394 0 4.4211946596 6.0016838939 0 
0.27665997492 2.5838218441 0 6.7053237048 2.42793991 0 0.29467629521 4.57206009 0 
4.4161781559 0.27665997492 0 6.663212343 4.4722222222 0 2.42793991 0.29467629521 0 
2.2918240758 6.1960938346 0 3.1734987121 5.8836777691 0 3.5136330362 5.8882723168 0 
6.6167962299 6.3741865029 0 6.3741865029 0.38320377014 0 0.38357251857 6.3760800284 0 
0.38320377014 0.6258134971 0 5.5 4.7113248654 0 2.5 1.6872666359 0 
5.8514999722 2.3378951476 0 3.6772759043 4.8414452564 0 4.3378951476 1.1485000278 0 
1.1485000278 4.6621048524 0 1.1485000278 2.6621048524 0 2.3378951476 1.1485000278 0 
5.1103344757 6.2741611014 0 0.71132486541 5.1666666667 0 6.2886751346 1.8333333333 0 
1.8333333333 0.71132486541 0 1.8899895413 6.2784546756 0 5.1666666667 0.71132486541 0 
6.2886751346 5.1666666667 0 0.71132486541 1.8333333333 0 3.8333333333 0.71132486541 0 
6.2886751346 3.8333333333 0 0.71132486541 3.1666666667 0 6.2939163714 3.1693263045 0 
3.1693263045 0.70608362863 0 0.70608362863 3.8306736955 0 6.3007298331 5.8302758913 0 
5.8302758913 0.69927016685 0 0.68791714935 5.8284678454 0 0.69927016685 1.1697241087 0 
1.1703128001 0.69343635082 0 1.1703128001 6.3065636492 0 5.8296871999 6.3065636492 0 
6.3065636492 1.1703128001 0 4.4127643558 6.3484393703 0 4.0729408297 6.1740044985 0 
5.3127333641 2.5 0 4.5 1.6872666359 0 1.6872666359 4.5 0 
1.6872666359 2.5 0 3.5 4.3127333641 0 2.5448645473 5.9628839255 0 
5.8438027206 4.298242306 0 3.341591884 6.1882059124 0 3.8079455038 5.2924572466 0 
4.0000028322 5.5805606494 0 0.80895730489 4.7699760833 0 2.2300239167 0.80895730489 0 
6.1910426951 2.2300239167 0 0.81140688702 2.7706116978 0 4.2293883022 0.81140688702 0 
6.1530370913 4.2585353481 0 2.1540193915 6.522253769 0 4.8162223334 6.4882902395 0 
4.8222111689 0.70955465736 0 6.2921473568 4.827319268 0 0.70955465736 2.1777888311 0 
6.3389745166 0.79855227087 0 0.79855227087 0.66102548337 0 6.2014477291 6.3389745166 0 
0.79902978757 6.339184919 0 2.827319268 0.70785264318 0 6.2921473568 2.827319268 0 
0.70785264318 4.172680732 0 2.984286409 6.1874521762 0 2.6004296679 5.6380503952 0 
4.3907348225 5.6293300039 0 2.4954354469 6.464014563 0 0.49511543862 4.857146981 0 
2.142853019 0.49511543862 0 6.5048845614 2.142853019 0 5.8109523545 2.6966506386 0 
3.3095189699 4.8399570492 0 1.1890476455 2.3033493614 0 2.6966506386 1.1890476455 0 
4.6966506386 1.1890476455 0 1.1890476455 4.3033493614 0 3.5 5.1333820886 0 
6.0092788027 4.6114103291 0 4.1180693191 6.5205687606 0 1.3559386168 0.35702514778 0 
5.6476385745 0.34601141574 0 0.34413339402 5.6496515319 0 0.34601141574 1.3523614255 0 
6.6539885843 5.6476385745 0 5.6440613832 6.6429748522 0 1.3559386168 6.6429748522 0 
6.6429748522 1.3559386168 0 3.691651827 6.1657024845 0 0.38131474442 4.0107495165 0 
0.35859789556 3.6542298248 0 2.9892504835 0.38131474442 0 3.3457701752 0.35859789556 0 
6.6186852556 2.9892504835 0 6.6414021044 3.3457701752 0 2.485711609 5.2962123554 0 
4.5142724884 5.301683263 0 4.1386885406 0.49621789734 0 0.49621789734 2.8613114594 0 
6.4653693356 4.1675183045 0 1.7815734083 0.35375209722 0 0.35191041811 5.2192251844 0 
5.2045327576 6.6420335985 0 5.2715908019 0.34496760504 0 0.34496760504 1.7284091981 0 
1.7912623484 6.6472833477 0 6.6462479028 1.7815734083 0 6.655032395 5.2715908019 0 
6.0018111307 0.33962155199 0 6.660378448 6.0018111307 0 0.33962155199 0.99818886931 0 
0.33789389548 6.0020556849 0 4.8431738401 0.36643899333 0 0.36643899333 2.1568261599 0 
6.6695014189 4.8502181121 0 3.3194031049 6.6880752893 0 0.98302760942 6.6572105079 0 
6.0170519767 6.6571754409 0 6.6571754409 0.9829480233 0 0.9829480233 0.34282455914 0 
0.60283050123 6.6812981717 0 6.6809416725 0.60267619269 0 0.60267619269 0.31905832746 0 
6.3973238073 6.6809416725 0 5.508864916 4.3176715804 0 3.7798225257 0.35426223421 0 
0.35426223421 3.2201774743 0 6.6429380014 3.7819238204 0 0.71132486541 5.5 0 
5.4647693027 6.3109555335 0 1.5 0.71132486541 0 3.5 0.71132486541 0 
0.71132486541 3.5 0 6.2886751346 1.5 0 6.2886751346 3.5 0 
[...]
CELL_DATA 1056
FIELD FieldData 1
radiation%20flux%20density 1 1056 double
-4.6843286457e-14 -4.6843286457e-14 6.3459751658e-12 1.7188873872e-11 9.579015426e-12 5.0156635444e-12 7.9511979185e-11 7.4576395723e-11 1.4499588837e-11 
-5.1774624225e-11 2.0231998827e-11 7.505356133e-12 -4.4780391521e-11 1.3385637608e-10 1.2992422434e-10 1.2992422434e-10 4.4841798508e-12 4.4841798508e-12 
-4.6843286457e-14 -4.6843286457e-14 -4.6843286457e-14 -4.6843286457e-14 -7.8847717759e-11 6.673641972e-11 -7.8841806107e-11 6.6741430185e-11 -4.6843286457e-14 
-4.6843286457e-14 8.1102826509e-14 1.090733439e-11 2.3810111071e-12 6.9443629887e-12 2.0231998827e-11 1.4499588837e-11 7.9511979185e-11 -4.4780391521e-11 
1.3385637608e-10 -5.1774624225e-11 7.505356133e-12 7.4576395723e-11 5.7539417124e-11 -6.7943608916e-11 5.7539417124e-11 -6.7943608916e-11 -4.6843286456e-14 
-4.6843286457e-14 -4.6843286457e-14 -4.6843286457e-14 5.2078217623e-12 1.5078604759e-10 5.2082159975e-12 1.5079736394e-10 -4.6843286457e-14 -4.6843286457e-14 
6.3429816314e-12 1.7138266965e-11 5.0156635444e-12 9.579015426e-12 7.4576395723e-11 1.4499588837e-11 7.9511979185e-11 -5.1774624225e-11 -4.4780391521e-11 
2.0231998827e-11 7.505356133e-12 1.3385637608e-10 4.4810446458e-12 1.3001421904e-10 4.4810446458e-12 1.3001421904e-10 -4.6843286457e-14 -4.6843286457e-14 
-4.6843286457e-14 -4.6843286457e-14 6.6741430185e-11 -7.8847717759e-11 -7.8841806107e-11 6.673641972e-11 -4.6843286457e-14 -4.6843286457e-14 1.1133528844e-11 
-2.1270640722e-13 6.9443629887e-12 2.3810111071e-12 7.505356133e-12 1.3385637608e-10 -4.4780391521e-11 7.4576395723e-11 -5.1774624225e-11 1.4499588837e-11 
2.0231998827e-11 7.9511979185e-11 5.7074760402e-11 5.7074760402e-11 -6.7533115492e-11 -6.7533115492e-11 -4.6843286457e-14 -4.6843286457e-14 -4.6843286457e-14 
-4.6843286457e-14 1.5078061824e-10 5.2084053175e-12 1.5080279829e-10 5.2076326165e-12 -4.6843286457e-14 -4.6843286457e-14 -7.5776033356e-13 1.1081691496e-11 
6.9443629887e-12 2.3810111071e-12 7.4576395723e-11 7.505356133e-12 1.3385637608e-10 -5.1774624225e-11 1.4499588837e-11 7.9511979185e-11 -4.4780391521e-11 
2.0231998827e-11 -6.6754169348e-11 5.7182475095e-11 -6.6754169348e-11 5.7182475095e-11 -4.6843286457e-14 -4.6843286457e-14 -4.6843286457e-14 -4.6843286457e-14 
5.2045192434e-12 1.5089271757e-10 5.211537895e-12 1.5069125021e-10 -4.6843286457e-14 -4.6843286457e-14 8.1102826509e-14 1.090733439e-11 6.9443629887e-12 
2.3810111071e-12 1.3385637608e-10 -5.1774624225e-11 7.4576395723e-11 7.505356133e-12 2.0231998827e-11 -4.4780391521e-11 1.4499588837e-11 7.9511979185e-11 
-6.7943608916e-11 5.7539417124e-11 5.7539417124e-11 -6.7943608916e-11 -4.6843286457e-14 -4.6843286457e-14 -4.6843286457e-14 -4.6843286457e-14 5.2082159975e-12 
1.5079736394e-10 5.2078217623e-12 1.5078604759e-10 0.31528042404 0.31528042404 0.27847938103 0.27845644729 0.27342186763 0.27342186763 
0.26163335573 0.26163335573 0.26163335573 0.26163335573 0.26163335573 0.26163335573 0.26163335573 0.26163335573 0.30061704792 
0.30062719412 0.30062719412 0.30061704792 0.31528042404 0.31528042404 0.31528042404 0.31528042404 0.29827518534 0.29827390951 
0.29827390951 0.29827518534 -4.6843286457e-14 -4.6843286457e-14 1.1504259028e-13 1.0926995067e-11 6.9443629887e-12 2.3810111071e-12 7.9511979185e-11 
1.4499588837e-11 2.0231998827e-11 -4.4780391521e-11 1.3385637608e-10 7.4576395723e-11 -5.1774624225e-11 7.505356133e-12 5.7499570774e-11 -6.7990622068e-11 
5.7499570774e-11 -6.7990622068e-11 -4.6843286457e-14 -4.6843286457e-14 -4.6843286457e-14 -4.6843286457e-14 1.5078604759e-10 5.2082159975e-12 5.2078217623e-12 
1.5079736394e-10 -4.6843286457e-14 -4.6843286457e-14 6.2661391959e-12 1.7587593898e-11 9.579015426e-12 5.0156635444e-12 7.4576395723e-11 1.4499588837e-11 
-5.1774624225e-11 7.9511979185e-11 7.505356133e-12 -4.4780391521e-11 1.3385637608e-10 2.0231998827e-11 4.4017235026e-12 1.2920805002e-10 4.4017235026e-12 
1.2920805002e-10 -4.6843286457e-14 -4.6843286457e-14 -4.6843286457e-14 -4.6843286457e-14 -7.8792284044e-11 -7.8897530409e-11 6.6694446923e-11 6.6783649271e-11 
-4.6843286457e-14 -4.6843286457e-14 1.7188873872e-11 6.3459751658e-12 5.0156635444e-12 9.579015426e-12 1.4499588837e-11 7.9511979185e-11 -4.4780391521e-11 
-5.1774624225e-11 7.4576395723e-11 2.0231998827e-11 1.3385637608e-10 7.505356133e-12 4.4841798508e-12 1.2992422434e-10 1.2992422434e-10 4.4841798508e-12 
-4.6843286457e-14 -4.6843286457e-14 -4.6843286457e-14 -4.6843286457e-14 6.673641972e-11 -7.8847717759e-11 6.6741430185e-11 -7.8841806107e-11 -4.6843286457e-14 
-4.6843286457e-14 1.0926995067e-11 1.1504259028e-13 6.9443629887e-12 2.3810111071e-12 7.9511979185e-11 2.0231998827e-11 -4.4780391521e-11 7.4576395723e-11 
7.505356133e-12 1.4499588837e-11 -5.1774624225e-11 1.3385637608e-10 -6.7990622068e-11 5.7499570774e-11 -6.7990622068e-11 5.7499570774e-11 -4.6843286457e-14 
-4.6843286457e-14 -4.6843286457e-14 -4.6843286457e-14 5.2082159975e-12 1.5078604759e-10 1.5079736394e-10 5.2078217623e-12 -4.6843286457e-14 -4.6843286457e-14 
6.2661391959e-12 1.7587593898e-11 5.0156635444e-12 9.579015426e-12 7.9511979185e-11 7.4576395723e-11 1.4499588837e-11 -5.1774624225e-11 2.0231998827e-11 
7.505356133e-12 -4.4780391521e-11 1.3385637608e-10 4.4017235026e-12 4.4017235026e-12 1.2920805002e-10 1.2920805002e-10 -4.6843286457e-14 -4.6843286457e-14 
-4.6843286457e-14 -4.6843286457e-14 -7.8897530409e-11 6.6694446923e-11 6.6783649271e-11 -7.8792284044e-11 3.5449077018e-10 3.5449077018e-10 3.5449077018e-10 
3.5449077018e-10 3.5449077018e-10 3.5449077018e-10 3.5449077018e-10 3.5449077018e-10 3.5449077018e-10 3.5449077018e-10 3.5449077018e-10 3.5449077018e-10 
3.5449077018e-10 3.5449077018e-10 3.5449077018e-10 3.5449077018e-10 3.5449077018e-10 3.5449077018e-10 3.5449077018e-10 3.5449077018e-10 3.5449077018e-10 
3.5449077018e-10 3.5449077018e-10 3.5449077018e-10 3.5449077018e-10 3.1929353402e-10 2.8304605687e-10 3.8164481545e-10 3.5267992584e-10 3.8180936492e-10 
3.5266895239e-10 2.8439896508e-10 3.5449077018e-10 3.5449077018e-10 3.5449077018e-10 3.5449077018e-10 3.5635974806e-10 3.5449077018e-10 3.5449077018e-10 
3.5449077018e-10 3.5449077018e-10 3.5449077018e-10 3.5449077018e-10 3.5449077018e-10 3.5449077018e-10 3.5449077018e-10 3.5449077018e-10 3.5449077018e-10 
3.5449077018e-10 3.5449077018e-10 3.5449077018e-10 3.5449077018e-10 3.5449077018e-10 3.5449077018e-10 3.5449077018e-10 3.5449077018e-10 3.5449077018e-10 
3.5449077018e-10 3.5449077018e-10 3.5449077018e-10 3.5449077018e-10 3.5449077018e-10 3.5449077018e-10 3.5449077018e-10 3.5449077018e-10 3.5449077018e-10 
3.5449077018e-10 3.5449077018e-10 3.5449077018e-10 3.5449077018e-10 3.5449077018e-10 3.5449077018e-10 3.5449077018e-10 3.5449077018e-10 3.5449077018e-10 
3.5449077018e-10 3.5449077018e-10 3.5449077018e-10 3.5449077018e-10 3.5449077018e-10 3.5449077018e-10 3.5449077018e-10 3.5449077018e-10 3.5449077018e-10 
3.5449077018e-10 3.5449077018e-10 3.5449077018e-10 3.5449077018e-10 3.5449077018e-10 3.5449077018e-10 3.5449077018e-10 3.5449077018e-10 3.5449077018e-10 
3.5449077018e-10 3.5449077018e-10 3.5449077018e-10 3.5449077018e-10 3.5449077018e-10 3.5449077018e-10 3.5449077018e-10 3.5449077018e-10 3.5449077018e-10 
3.5449077018e-10 3.5449077018e-10 3.5449077018e-10 3.5449077018e-10 3.5449077018e-10 3.5449077018e-10 3.5449077018e-10 3.4998283767e-10 3.8065016202e-10 
3.5274625712e-10 3.5272526001e-10 3.4992857981e-10 3.5449077018e-10 3.5449077018e-10 3.5449077018e-10 3.5449077018e-10 3.5449077018e-10 3.5449077018e-10 
3.5449077018e-10 3.5449077018e-10 3.5449077018e-10 3.5449077018e-10 3.5449077018e-10 3.5449077018e-10 3.5449077018e-10 3.5449077018e-10 3.5449077018e-10 
3.5449077018e-10 3.5449077018e-10 3.5449077018e-10 3.5449077018e-10 3.5449077018e-10 3.5449077018e-10 3.5449077018e-10 3.5449077018e-10 3.5449077018e-10 
3.5449077018e-10 3.5449077018e-10 3.5449077018e-10 3.5449077018e-10 3.5449077018e-10 3.5449077018e-10 3.5449077018e-10 3.5449077018e-10 3.5449077018e-10 
3.5449077018e-10 3.5449077018e-10 3.5449077018e-10 3.5449077018e-10 3.5449077018e-10 3.5449077018e-10 3.5449077018e-10 3.5449077018e-10 3.5449077018e-10 
3.5449077018e-10 3.5449077018e-10 2.7721149472e-10 3.5449077018e-10 2.7799622304e-10 3.1110937606e-10 3.5449077018e-10 3.1170936082e-10 3.5449077018e-10 
3.5449077018e-10 3.5449077018e-10 3.5449077018e-10 3.5449077018e-10 3.5449077018e-10 3.5449077018e-10 3.5449077018e-10 3.5449077018e-10 3.5449077018e-10 
3.5449077018e-10 3.5449077018e-10 3.5449077018e-10 3.5449077018e-10 3.5449077018e-10 3.5449077018e-10 3.5449077018e-10 3.5449077018e-10 3.5449077018e-10 
3.5449077018e-10 3.5449077018e-10 3.5449077018e-10 3.5449077018e-10 3.5449077018e-10 3.5449077018e-10 3.5449077018e-10 3.5449077018e-10 3.5449077018e-10 
3.5449077018e-10 3.5449077018e-10 3.5449077018e-10 3.5449077018e-10 3.5449077018e-10 3.5449077018e-10 3.5449077018e-10 3.5449077018e-10 3.5449077018e-10 
3.5449077018e-10 3.5449077018e-10 3.5449077018e-10 3.5449077018e-10 3.5449077018e-10 3.5449077018e-10 3.5449077018e-10 3.5449077018e-10 3.5449077018e-10 
3.5449077018e-10 3.5449077018e-10 3.5449077018e-10 3.5269536203e-10 2.8331250424e-10 3.8141334606e-10 3.5449077018e-10 3.5449077018e-10 3.5449077018e-10 
3.5449077018e-10 3.5449077018e-10 3.5449077018e-10 3.5449077018e-10 3.5449077018e-10 3.5449077018e-10 3.5449077018e-10 3.5449077018e-10 3.5449077018e-10 
3.5449077018e-10 3.5449077018e-10 3.5449077018e-10 3.5449077018e-10 3.5449077018e-10 3.5449077018e-10 3.5449077018e-10 3.5449077018e-10 3.5449077018e-10 
3.5449077018e-10 3.5449077018e-10 3.5449077018e-10 3.5449077018e-10 3.5449077018e-10 3.5449077018e-10 3.5449077018e-10 3.5449077018e-10 3.5273966029e-10 
3.5449077018e-10 3.5449077018e-10 3.5449077018e-10 3.5449077018e-10 3.5449077018e-10 3.5449077018e-10 3.5449077018e-10 3.5449077018e-10 3.5449077018e-10 
3.5449077018e-10 3.5449077018e-10 3.5449077018e-10 3.5449077018e-10 3.5449077018e-10 3.5449077018e-10 3.5449077018e-10 3.5449077018e-10 3.5449077018e-10 
3.5449077018e-10 3.5449077018e-10 3.5449077018e-10 3.5449077018e-10 3.5449077018e-10 3.5449077018e-10 3.5449077018e-10 3.5449077018e-10 3.5449077018e-10 
3.5449077018e-10 3.5449077018e-10 3.5449077018e-10 3.5449077018e-10 3.5449077018e-10 3.5449077018e-10 3.5449077018e-10 3.5449077018e-10 3.5449077018e-10 
3.5449077018e-10 3.5449077018e-10 3.5449077018e-10 3.5449077018e-10 3.5449077018e-10 4.3358468566e-10 3.4311294285e-10 1.9961899739e-10 4.2741786476e-10 
3.4337872036e-10 2.7823397432e-10 3.4311294285e-10 2.7823397432e-10 4.305554049e-10 4.305554049e-10 3.4337872036e-10 2.8025023426e-10 4.2741786476e-10 
1.9238427351e-10 0.035206989736 1.9961899739e-10 2.7750335276e-10 3.1261236371e-10 2.829991698e-10 4.3173926203e-10 3.4364937867e-10 1.9143715284e-10 
3.5449077018e-10 3.5449077018e-10 2.7884825894e-10 1.8478589504e-10 3.426544667e-10 2.7895520829e-10 3.5449077018e-10 3.5449077018e-10 3.5449077018e-10 
3.5449077018e-10 3.1642109832e-10 3.5088634442e-10 3.5449077018e-10 3.5449077018e-10 3.5449077018e-10 3.5449077018e-10 3.5449077018e-10 3.5449077018e-10 
3.5449077018e-10 3.5449077018e-10 3.5449077018e-10 3.5449077018e-10 2.8762881068e-10 3.3171672853e-10 3.1645681339e-10 3.765082716e-10 3.5449077018e-10 
3.5449077018e-10 3.7671588351e-10 3.315019829e-10 3.0787192931e-10 3.5449077018e-10 3.5449077018e-10 3.5449077018e-10 3.5449077018e-10 3.5449077018e-10 
3.5449077018e-10 3.5449077018e-10 3.5449077018e-10 2.7474717192e-10 4.3606987078e-10 3.4221969335e-10 1.8236688702e-10 3.4201203879e-10 2.7315692692e-10 
4.34754519e-10 1.7925570804e-10 2.7315692692e-10 1.8236688702e-10 3.4201203879e-10 4.34754519e-10 3.5449077018e-10 2.7931122615e-10 3.4267337432e-10 
1.9346028558e-10 4.3009330337e-10 1.8521036408e-10 1.8678650707e-10 4.3358468566e-10 1.9056260003e-10 1.8521036408e-10 2.7869089211e-10 2.7463282715e-10 
4.3292782927e-10 3.4283385242e-10 1.8521036408e-10 3.4347960749e-10 1.8521036408e-10 2.7953468987e-10 4.3358468566e-10 4.3133357158e-10 3.4303666651e-10 
4.3358468566e-10 4.3358468566e-10 3.4267337432e-10 3.4267337432e-10 1.8521036408e-10 1.8882678374e-10 2.7869089211e-10 2.7400560008e-10 3.4267337432e-10 
4.3358468566e-10 4.3206978383e-10 3.4336066482e-10 3.4267337432e-10 3.5449077018e-10 3.5449077018e-10 3.5449077018e-10 3.5265742137e-10 3.5449077018e-10 
3.2207454666e-10 3.2270397239e-10 3.8106395016e-10 3.5271866248e-10 3.5270694644e-10 3.8123963505e-10 3.5449077018e-10 3.5449077018e-10 3.5449077018e-10 
3.5449077018e-10 3.5449077018e-10 3.5449077018e-10 3.5449077018e-10 3.5449077018e-10 3.5449077018e-10 3.5449077018e-10 3.5449077018e-10 3.5449077018e-10 
3.5449077018e-10 3.5449077018e-10 3.5449077018e-10 3.2011840478e-10 3.2900966005e-10 3.7616265572e-10 3.5212460734e-10 3.5449077018e-10 3.5449077018e-10 
3.5449077018e-10 3.5449077018e-10 3.4207262297e-10 1.7924516435e-10 3.5449077018e-10 3.5449077018e-10 3.5449077018e-10 3.1361465053e-10 3.510293055e-10 
3.0923142677e-10 2.4835201001e-10 3.5079314409e-10 2.4984684062e-10 2.5571464183e-10 4.0718282484e-10 4.0343832386e-10 2.5362524976e-10 3.5122656407e-10 
3.1006794996e-10 4.0993756042e-10 4.0609132836e-10 4.0993756042e-10 3.5079314409e-10 3.5104964095e-10 4.0915666229e-10 2.4835201001e-10 3.5084522049e-10 
2.6079314335e-10 3.1378175488e-10 3.5449077018e-10 4.1244790258e-10 3.0536876698e-10 3.1239082456e-10 2.5940622027e-10 3.5096960688e-10 2.4767511638e-10 
3.0536876698e-10 3.5062573482e-10 4.0416285119e-10 2.5940622027e-10 4.0416285119e-10 3.5062573482e-10 3.5449077018e-10 3.5449077018e-10 3.5449077018e-10 
3.5449077018e-10 3.5449077018e-10 3.5449077018e-10 3.5449077018e-10 3.5449077018e-10 3.5449077018e-10 3.5449077018e-10 1.7595749695e-10 3.5449077018e-10 
3.5449077018e-10 3.5449077018e-10 3.5449077018e-10 3.5449077018e-10 3.5449077018e-10 3.5449077018e-10 3.5449077018e-10 3.5449077018e-10 3.5449077018e-10 
3.5449077018e-10 3.5449077018e-10 3.5449077018e-10 3.5449077018e-10 3.5449077018e-10 3.5449077018e-10 3.5449077018e-10 3.5449077018e-10 3.5449077018e-10 
1.9473908385e-10 0.011099005883 2.7403324631e-10 4.35314809e-10 3.1678816935e-10 4.35314809e-10 4.35314809e-10 3.9255988597e-10 2.2348996505e-10 
1.5198416081e-10 0.042265957962 2.6624488808e-10 3.9255988597e-10 3.9255988597e-10 2.2348996505e-10 2.6624488808e-10 2.7403324631e-10 4.35314809e-10 
2.2348996505e-10 0.04226595789 3.9255988597e-10 3.1678816935e-10 0.011099005714 3.1678816935e-10 1.9398015823e-10 2.2338542977e-10 1.5137880672e-10 
3.1609940446e-10 2.7230031071e-10 2.6542663693e-10 1.9221783334e-10 1.5000184809e-10 3.5449077018e-10 3.5054393321e-10 2.4041942629e-10 3.5449077018e-10 
3.5449077018e-10 3.5449077018e-10 3.5449077018e-10 3.5449077018e-10 3.5449077018e-10 3.5449077018e-10 3.5449077018e-10 3.5449077018e-10 3.5449077018e-10 
2.9574268244e-10 3.5449077018e-10 3.5449077018e-10 3.5449077018e-10 2.966743209e-10 3.5449077018e-10 3.5449077018e-10 3.5449077018e-10 3.5449077018e-10 
2.1368450381e-10 4.0206971603e-10 3.4960519109e-10 3.5449077018e-10 3.5449077018e-10 3.5449077018e-10 3.5449077018e-10 4.2742067484e-10 4.4055739222e-10 
3.5449077018e-10 3.5449077018e-10 3.5449077018e-10 2.9533705843e-10 2.2088955113e-10 2.9303912677e-10 2.2088955113e-10 3.4965560957e-10 4.2428392356e-10 
2.1622824979e-10 3.4965560957e-10 2.9303912677e-10 4.2699516334e-10 4.2428392356e-10 3.4976359358e-10 3.5449077018e-10 3.5449077018e-10 3.5449077018e-10 
3.5449077018e-10 3.0083491763e-10 4.2367718921e-10 2.3120051221e-10 0.013900020801 3.5019562603e-10 4.1889748702e-10 3.5019562603e-10 4.1889748702e-10 
4.1889748702e-10 2.3120051221e-10 0.013900020801 3.5019562603e-10 3.5019562603e-10 4.1889748702e-10 3.5449077018e-10 3.5449077018e-10 3.5449077018e-10 
3.5449077018e-10 3.5449077018e-10 3.5449077018e-10 3.5449077018e-10 3.5449077018e-10 2.4509841068e-10 3.5209989035e-10 3.5449077018e-10 3.5449077018e-10 
3.5449077018e-10 3.5449077018e-10 3.5449077018e-10 3.5449077018e-10 3.5449077018e-10 3.5449077018e-10 3.5449077018e-10 3.5449077018e-10 3.5449077018e-10 
3.5449077018e-10 3.5449077018e-10 3.5449077018e-10 3.5449077018e-10 3.5449077018e-10 3.5449077018e-10 3.5449077018e-10 3.5449077018e-10 3.5449077018e-10 
3.5449077018e-10 3.5449077018e-10 3.5449077018e-10 3.5449077018e-10 3.5449077018e-10 3.5449077018e-10 3.5449077018e-10 3.5449077018e-10 3.5449077018e-10 
3.5449077018e-10 3.5449077018e-10 3.5449077018e-10 3.5449077018e-10 3.5449077018e-10 3.5449077018e-10 3.5449077018e-10 3.5449077018e-10 3.5449077018e-10 
3.5449077018e-10 3.5449077018e-10 3.5449077018e-10 3.5449077018e-10 3.5449077018e-10 2.0841060622e-10 2.0908142629e-10 3.5449077018e-10 3.5449077018e-10 
3.5449077018e-10 3.5449077018e-10 3.5449077018e-10 3.5449077018e-10 3.5449077018e-10 3.5449077018e-10 3.5449077018e-10 3.5449077018e-10 3.5449077018e-10 
3.5449077018e-10 3.5449077018e-10 3.5449077018e-10 3.5449077018e-10 3.5449077018e-10 3.5449077018e-10 3.5449077018e-10 3.5449077018e-10 0.036555972759 
2.7737132776e-10 1.7301307835e-10 3.4126188645e-10 2.6598678128e-10 2.7349805296e-10 1.5137880672e-10 0.042470326786 0.011176742101 1.9398015823e-10 
0.011176741932 0.042470326905 2.9729227291e-10 0.014545059436 0.014545059436 2.9729227291e-10 3.5449077018e-10 3.5449077018e-10 3.5449077018e-10 
3.5449077018e-10 2.0366330865e-10 3.4923552158e-10 2.036411286e-10 3.4923629428e-10 3.5449077018e-10 3.5449077018e-10 4.3276749625e-10 2.7702952578e-10 
0.041858556774 1.7301307835e-10 3.1609940446e-10 1.5137880672e-10 0.04247032696 0.01117674203 0.011176742199 2.2338542977e-10 1.9398015823e-10 
0.042470326841 4.2238753581e-10 2.9690450977e-10 4.2238753581e-10 2.9690450977e-10 3.5449077018e-10 3.5449077018e-10 3.5449077018e-10 3.5449077018e-10 
0.017006514893 0.017005239062 2.0364656295e-10 2.0365787931e-10 3.5449077018e-10 3.5449077018e-10 3.4305765962e-10 0.036618210964 2.70151573e-10 
4.384003811e-10 4.3545619171e-10 0.01117674203 2.7349805296e-10 0.04247032696 3.928548402e-10 0.042470326888 2.6598678128e-10 0.011176742199 
0.014572487177 3.5004220339e-10 3.5004220339e-10 0.014572487177 3.5449077018e-10 3.5449077018e-10 3.5449077018e-10 3.5449077018e-10 2.8774947997e-10 
2.8766027762e-10 4.333414573e-10 4.3323621094e-10 
POINT_DATA 565
FIELD FieldData 1
radiation%20flux%20density 1 565 double
3.5449077018e-10 3.5449077018e-10 3.5449077018e-10 3.5449077018e-10 2.79637572e-10 2.3810782981e-10 1.4375243052e-10 2.514450567e-10 1.6734518042e-10 
2.8069961025e-10 2.5280398743e-10 1.7290526691e-10 1.6717464545e-10 2.8058367537e-10 2.3809946379e-10 1.43653268e-10 1.43653268e-10 2.5120748936e-10 
1.7078396809e-10 1.6722918757e-10 1.4333436965e-10 2.5172234206e-10 0.07878484307 0.078784843038 1.9373169109e-10 1.6678223501e-10 1.43653268e-10 
2.5147740699e-10 2.665366755e-10 1.6717464545e-10 1.726767107e-10 2.5192690666e-10 2.6650390242e-10 2.5521207729e-10 1.9930836462e-10 2.3462649801e-10 
0.078820106127 0.078820106183 3.5449077018e-10 3.5449077018e-10 3.5449077018e-10 3.5449077018e-10 3.5449077018e-10 3.5449077018e-10 3.5449077018e-10 
3.5449077018e-10 3.5449077018e-10 3.5449077018e-10 3.5449077018e-10 3.5449077018e-10 3.5449077018e-10 3.5449077018e-10 3.5449077018e-10 3.5449077018e-10 
3.5449077018e-10 3.5449077018e-10 3.5449077018e-10 3.5449077018e-10 3.5449077018e-10 3.5449077018e-10 3.5449077018e-10 3.5449077018e-10 3.5449077018e-10 
3.5449077018e-10 3.5449077018e-10 3.5449077018e-10 3.5449077018e-10 3.5449077018e-10 3.5449077018e-10 3.5449077018e-10 3.5449077018e-10 3.5449077018e-10 
3.5449077018e-10 3.5449077018e-10 3.5449077018e-10 3.5449077018e-10 3.5449077018e-10 3.5449077018e-10 3.5449077018e-10 3.5449077018e-10 3.5449077018e-10 
3.5449077018e-10 3.5449077018e-10 3.5449077018e-10 3.5449077018e-10 3.5449077018e-10 3.5449077018e-10 3.5449077018e-10 3.5449077018e-10 3.5449077018e-10 
3.5449077018e-10 3.5449077018e-10 3.5449077018e-10 3.5449077018e-10 3.5449077018e-10 3.5449077018e-10 3.5449077018e-10 3.5449077018e-10 3.5449077018e-10 
3.5449077018e-10 3.5449077018e-10 3.5449077018e-10 3.5449077018e-10 3.5449077018e-10 3.5449077018e-10 3.5449077018e-10 2.3722752409e-10 2.260615636e-10 