# vtk DataFile Version 5.1
vtk output
ASCII
DATASET UNSTRUCTURED_GRID
POINTS 961 double
0 1 0 1 1 0 1 0 0 
0 0 0 0 0.96666666667 0 0 0.93333333333 0 
0 0.9 0 0 0.86666666667 0 0 0.83333333333 0 
0 0.8 0 0 0.76666666667 0 0 0.73333333333 0 
0 0.7 0 0 0.66666666667 0 0 0.63333333333 0 
0 0.6 0 0 0.56666666667 0 0 0.53333333334 0 
0 0.5 0 0 0.46666666667 0 0 0.43333333334 0 
0 0.4 0 0 0.36666666667 0 0 0.33333333333 0 
0 0.3 0 0 0.26666666667 0 0 0.23333333333 0 
0 0.2 0 0 0.16666666667 0 0 0.13333333333 0 
0 0.1 0 0 0.066666666667 0 0 0.033333333333 0 
0.033333333333 0 0 0.066666666667 0 0 0.1 0 0 
0.13333333333 0 0 0.16666666667 0 0 0.2 0 0 
0.23333333333 0 0 0.26666666667 0 0 0.3 0 0 
0.33333333333 0 0 0.36666666667 0 0 0.4 0 0 
0.43333333333 0 0 0.46666666667 0 0 0.5 0 0 
0.53333333333 0 0 0.56666666667 0 0 0.6 0 0 
0.63333333333 0 0 0.66666666667 0 0 0.7 0 0 
0.73333333333 0 0 0.76666666667 0 0 0.8 0 0 
0.83333333333 0 0 0.86666666667 0 0 0.9 0 0 
0.93333333333 0 0 0.96666666667 0 0 1 0.033333333333 0 
1 0.066666666667 0 1 0.1 0 1 0.13333333333 0 
1 0.16666666667 0 1 0.2 0 1 0.23333333333 0 
1 0.26666666667 0 1 0.3 0 1 0.33333333333 0 
1 0.36666666667 0 1 0.4 0 1 0.43333333333 0 
1 0.46666666667 0 1 0.5 0 1 0.53333333333 0 
1 0.56666666667 0 1 0.6 0 1 0.63333333333 0 
1 0.66666666667 0 1 0.7 0 1 0.73333333333 0 
1 0.76666666667 0 1 0.8 0 1 0.83333333333 0 
1 0.86666666667 0 1 0.9 0 1 0.93333333333 0 
1 0.96666666667 0 0.96666666667 1 0 0.93333333333 1 0 
0.9 1 0 0.86666666667 1 0 0.83333333333 1 0 
0.8 1 0 0.76666666667 1 0 0.73333333333 1 0 
0.7 1 0 0.66666666667 1 0 0.63333333333 1 0 
0.6 1 0 0.56666666667 1 0 0.53333333334 1 0 
0.5 1 0 0.46666666667 1 0 0.43333333334 1 0 
0.4 1 0 0.36666666667 1 0 0.33333333333 1 0 
0.3 1 0 0.26666666667 1 0 0.23333333333 1 0 
0.2 1 0 0.16666666667 1 0 0.13333333333 1 0 
0.1 1 0 0.066666666667 1 0 0.033333333333 1 0 
0.033333333333 0.033333333333 0 0.033333333333 0.066666666667 0 0.033333333333 0.1 0 
0.033333333333 0.13333333333 0 0.033333333333 0.16666666667 0 0.033333333333 0.2 0 
0.033333333333 0.23333333333 0 0.033333333333 0.26666666667 0 0.033333333333 0.3 0 
0.033333333333 0.33333333333 0 0.033333333333 0.36666666667 0 0.033333333333 0.4 0 
0.033333333333 0.43333333334 0 0.033333333333 0.46666666667 0 0.033333333333 0.5 0 
0.033333333333 0.53333333334 0 0.033333333333 0.56666666667 0 0.033333333333 0.6 0 
0.033333333333 0.63333333333 0 0.033333333333 0.66666666667 0 0.033333333333 0.7 0 
0.033333333333 0.73333333333 0 0.033333333333 0.76666666667 0 0.033333333333 0.8 0 
0.033333333333 0.83333333333 0 0.033333333333 0.86666666667 0 0.033333333333 0.9 0 
0.033333333333 0.93333333333 0 0.033333333333 0.96666666667 0 0.066666666667 0.033333333333 0 
0.066666666667 0.066666666667 0 0.066666666667 0.1 0 0.066666666667 0.13333333333 0 
0.066666666667 0.16666666667 0 0.066666666667 0.2 0 0.066666666667 0.23333333333 0 
0.066666666667 0.26666666667 0 0.066666666667 0.3 0 0.066666666667 0.33333333333 0 
0.066666666667 0.36666666667 0 0.066666666667 0.4 0 0.066666666667 0.43333333333 0 
0.066666666667 0.46666666667 0 0.066666666667 0.5 0 0.066666666667 0.53333333333 0 
0.066666666667 0.56666666667 0 0.066666666667 0.6 0 0.066666666667 0.63333333333 0 
0.066666666667 0.66666666667 0 0.066666666667 0.7 0 0.066666666667 0.73333333333 0 
0.066666666667 0.76666666667 0 0.066666666667 0.8 0 0.066666666667 0.83333333333 0 
0.066666666667 0.86666666667 0 0.066666666667 0.9 0 0.066666666667 0.93333333333 0 
0.066666666667 0.96666666667 0 0.1 0.033333333333 0 0.1 0.066666666667 0 
0.1 0.1 0 0.1 0.13333333333 0 0.1 0.16666666667 0 
0.1 0.2 0 0.1 0.23333333333 0 0.1 0.26666666667 0 
0.1 0.3 0 0.1 0.33333333333 0 0.1 0.36666666667 0 
0.1 0.4 0 0.1 0.43333333333 0 0.1 0.46666666667 0 
0.1 0.5 0 0.1 0.53333333333 0 0.1 0.56666666667 0 
0.1 0.6 0 0.1 0.63333333333 0 0.1 0.66666666667 0 
0.1 0.7 0 0.1 0.73333333333 0 0.1 0.76666666667 0 
0.1 0.8 0 0.1 0.83333333333 0 0.1 0.86666666667 0 
0.1 0.9 0 0.1 0.93333333333 0 0.1 0.96666666667 0 
0.13333333333 0.033333333333 0 0.13333333333 0.066666666667 0 0.13333333333 0.1 0 
0.13333333333 0.13333333333 0 0.13333333333 0.16666666667 0 0.13333333333 0.2 0 
0.13333333333 0.23333333333 0 0.13333333333 0.26666666667 0 0.13333333333 0.3 0 
0.13333333333 0.33333333333 0 0.13333333333 0.36666666667 0 0.13333333333 0.4 0 
0.13333333333 0.43333333333 0 0.13333333333 0.46666666667 0 0.13333333333 0.5 0 
0.13333333333 0.53333333333 0 0.13333333333 0.56666666667 0 0.13333333333 0.6 0 
0.13333333333 0.63333333333 0 0.13333333333 0.66666666667 0 0.13333333333 0.7 0 
0.13333333333 0.73333333333 0 0.13333333333 0.76666666667 0 0.13333333333 0.8 0 
0.13333333333 0.83333333333 0 0.13333333333 0.86666666667 0 0.13333333333 0.9 0 
0.13333333333 0.93333333333 0 0.13333333333 0.96666666667 0 0.16666666667 0.033333333333 0 
0.16666666667 0.066666666667 0 0.16666666667 0.1 0 0.16666666667 0.13333333333 0 
0.16666666667 0.16666666667 0 0.16666666667 0.2 0 0.16666666667 0.23333333333 0 
0.16666666667 0.26666666667 0 0.16666666667 0.3 0 0.16666666667 0.33333333333 0 
0.16666666667 0.36666666667 0 0.16666666667 0.4 0 0.16666666667 0.43333333333 0 
0.16666666667 0.46666666667 0 0.16666666667 0.5 0 0.16666666667 0.53333333333 0 
0.16666666667 0.56666666667 0 0.16666666667 0.6 0 0.16666666667 0.63333333333 0 
0.16666666667 0.66666666667 0 0.16666666667 0.7 0 0.16666666667 0.73333333333 0 
0.16666666667 0.76666666667 0 0.16666666667 0.8 0 0.16666666667 0.83333333333 0 
0.16666666667 0.86666666667 0 0.16666666667 0.9 0 0.16666666667 0.93333333333 0 
0.16666666667 0.96666666667 0 0.2 0.033333333333 0 0.2 0.066666666667 0 
0.2 0.1 0 0.2 0.13333333333 0 0.2 0.16666666667 0 
0.2 0.2 0 0.2 0.23333333333 0 0.2 0.26666666667 0 
0.2 0.3 0 0.2 0.33333333333 0 0.2 0.36666666667 0 
0.2 0.4 0 0.2 0.43333333333 0 0.2 0.46666666667 0 
0.2 0.5 0 0.2 0.53333333333 0 0.2 0.56666666667 0 
0.2 0.6 0 0.2 0.63333333333 0 0.2 0.66666666667 0 
0.2 0.7 0 0.2 0.73333333333 0 0.2 0.76666666667 0 
0.2 0.8 0 0.2 0.83333333333 0 0.2 0.86666666667 0 
0.2 0.9 0 0.2 0.93333333333 0 0.2 0.96666666667 0 
0.23333333333 0.033333333333 0 0.23333333333 0.066666666667 0 0.23333333333 0.1 0 
0.23333333333 0.13333333333 0 0.23333333333 0.16666666667 0 0.23333333333 0.2 0 
0.23333333333 0.23333333333 0 0.23333333333 0.26666666667 0 0.23333333333 0.3 0 
0.23333333333 0.33333333333 0 0.23333333333 0.36666666667 0 0.23333333333 0.4 0 
0.23333333333 0.43333333333 0 0.23333333333 0.46666666667 0 0.23333333333 0.5 0 
0.23333333333 0.53333333333 0 0.23333333333 0.56666666667 0 0.23333333333 0.6 0 
0.23333333333 0.63333333333 0 0.23333333333 0.66666666667 0 0.23333333333 0.7 0 
0.23333333333 0.73333333333 0 0.23333333333 0.76666666667 0 0.23333333333 0.8 0 
0.23333333333 0.83333333333 0 0.23333333333 0.86666666667 0 0.23333333333 0.9 0 
0.23333333333 0.93333333333 0 0.23333333333 0.96666666667 0 0.26666666667 0.033333333333 0 
0.26666666667 0.066666666667 0 0.26666666667 0.1 0 0.26666666667 0.13333333333 0 
0.26666666667 0.16666666667 0 0.26666666667 0.2 0 0.26666666667 0.23333333333 0 
0.26666666667 0.26666666667 0 0.26666666667 0.3 0 0.26666666667 0.33333333333 0 
0.26666666667 0.36666666667 0 0.26666666667 0.4 0 0.26666666667 0.43333333333 0 
0.26666666667 0.46666666667 0 0.26666666667 0.5 0 0.26666666667 0.53333333333 0 
0.26666666667 0.56666666667 0 0.26666666667 0.6 0 0.26666666667 0.63333333333 0 
0.26666666667 0.66666666667 0 0.26666666667 0.7 0 0.26666666667 0.73333333333 0 
0.26666666667 0.76666666667 0 0.26666666667 0.8 0 0.26666666667 0.83333333333 0 
0.26666666667 0.86666666667 0 0.26666666667 0.9 0 0.26666666667 0.93333333333 0 
0.26666666667 0.96666666667 0 0.3 0.033333333333 0 0.3 0.066666666667 0 
0.3 0.1 0 0.3 0.13333333333 0 0.3 0.16666666667 0 
0.3 0.2 0 0.3 0.23333333333 0 0.3 0.26666666667 0 
0.3 0.3 0 0.3 0.33333333333 0 0.3 0.36666666667 0 
0.3 0.4 0 0.3 0.43333333333 0 0.3 0.46666666667 0 
0.3 0.5 0 0.3 0.53333333333 0 0.3 0.56666666667 0 
0.3 0.6 0 0.3 0.63333333333 0 0.3 0.66666666667 0 
0.3 0.7 0 0.3 0.73333333333 0 0.3 0.76666666667 0 
0.3 0.8 0 0.3 0.83333333333 0 0.3 0.86666666667 0 
0.3 0.9 0 0.3 0.93333333333 0 0.3 0.96666666667 0 
0.33333333333 0.033333333333 0 0.33333333333 0.066666666667 0 0.33333333333 0.1 0 
0.33333333333 0.13333333333 0 0.33333333333 0.16666666667 0 0.33333333333 0.2 0 
0.33333333333 0.23333333333 0 0.33333333333 0.26666666667 0 0.33333333333 0.3 0 
0.33333333333 0.33333333333 0 0.33333333333 0.36666666667 0 0.33333333333 0.4 0 
0.33333333333 0.43333333333 0 0.33333333333 0.46666666667 0 0.33333333333 0.5 0 
0.33333333333 0.53333333333 0 0.33333333333 0.56666666667 0 0.33333333333 0.6 0 
0.33333333333 0.63333333333 0 0.33333333333 0.66666666667 0 0.33333333333 0.7 0 
0.33333333333 0.73333333333 0 0.33333333333 0.76666666667 0 0.33333333333 0.8 0 
0.33333333333 0.83333333333 0 0.33333333333 0.86666666667 0 0.33333333333 0.9 0 
0.33333333333 0.93333333333 0 0.33333333333 0.96666666667 0 0.36666666667 0.033333333333 0 
0.36666666667 0.066666666667 0 0.36666666667 0.1 0 0.36666666667 0.13333333333 0 
0.36666666667 0.16666666667 0 0.36666666667 0.2 0 0.36666666667 0.23333333333 0 
0.36666666667 0.26666666667 0 0.36666666667 0.3 0 0.36666666667 0.33333333333 0 
0.36666666667 0.36666666667 0 0.36666666667 0.4 0 0.36666666667 0.43333333333 0 
0.36666666667 0.46666666667 0 0.36666666667 0.5 0 0.36666666667 0.53333333333 0 
0.36666666667 0.56666666667 0 0.36666666667 0.6 0 0.36666666667 0.63333333333 0 
0.36666666667 0.66666666667 0 0.36666666667 0.7 0 0.36666666667 0.73333333333 0 
0.36666666667 0.76666666667 0 0.36666666667 0.8 0 0.36666666667 0.83333333333 0 
0.36666666667 0.86666666667 0 0.36666666667 0.9 0 0.36666666667 0.93333333333 0 
0.36666666667 0.96666666667 0 0.4 0.033333333333 0 0.4 0.066666666667 0 
0.4 0.1 0 0.4 0.13333333333 0 0.4 0.16666666667 0 
0.4 0.2 0 0.4 0.23333333333 0 0.4 0.26666666667 0 
0.4 0.3 0 0.4 0.33333333333 0 0.4 0.36666666667 0 
[...]
CELL_DATA 900
FIELD FieldData 3
radiation%20flux%20density 1 900 double
0 0 0 0 0 0 0 0 0 
0 0 0 0 0 0 0 0 0 
0 0 0 0 0 0 0 0 0 
0 0 0 0 2.2568076404e-05 -0.00010201751006 0.00018242816647 0.00089553148092 -0.013843498727 
-0.030458232335 0.18607645408 -1.0167887599 -3.7338679426 8.5468797757 85.336877986 -31.570129731 -1558.2367538 -2256.5627929 
-2256.5627913 -1558.2367515 -31.570128961 85.336877636 8.5468797534 -3.7338679474 -1.0167887633 0.18607645431 -0.030458232104 
-0.013843498741 0.00089553148851 0.00018242816416 -0.00010201751033 2.2568076441e-05 0 0 -0.00011805976052 0.00030517216647 
0.0013685506781 -0.010354893485 -0.013156058908 0.15831109153 -1.1044772249 -4.3619171608 17.794355187 55.461160859 -360.76954163 
-2485.8208851 -2576.4864765 5956.4774019 5956.4774326 -2576.4864702 -2485.8208819 -360.76954195 55.461160762 17.794355135 
-4.361917162 -1.104477225 0.15831109165 -0.01315605898 -0.010354893469 0.0013685506852 0.00030517216388 -0.00011805976067 0 
0 0.00049201615971 0.0014610280715 -0.0099786108175 -0.012945841065 0.1958609879 -1.0040763382 -4.3667751265 32.058874425 
49.563556503 -939.47062852 -2638.9918995 7044.6021038 28076.568344 24147.573235 24147.573165 28076.56836 7044.6021042 
-2638.9918986 -939.47062531 49.563556534 32.058874367 -4.366775123 -1.0040763374 0.19586098802 -0.01294584104 -0.0099786108026 
0.0014610280726 0.00049201615729 0 0 0.00097425122658 -0.012884689894 -0.019085406353 0.21907545649 -1.4744312398 
-3.2577882068 39.485477074 60.909021424 -669.97846221 -2065.7368564 28207.360983 51894.371875 42393.306354 32405.60799 
32405.607993 42393.306208 51894.371879 28207.360972 -2065.736857 -669.97846051 60.909021436 39.485477069 -3.2577882086 
-1.4744312399 0.21907545644 -0.019085406318 -0.012884689879 0.00097425123253 0 0 -0.01811086123 -0.008730452979 
0.26532114304 -1.6657743448 -3.0120406834 48.054155443 73.062034224 -683.78935485 -1219.1859716 53416.639081 70201.808472 
35541.384142 28270.249927 32883.778783 32883.778796 28270.24997 35541.383956 70201.80848 53416.639066 -1219.1859719 
-683.78935475 73.06203419 48.054155426 -3.0120406856 -1.6657743426 0.26532114286 -0.0087304530666 -0.018110861196 0 
0 -0.020189399753 0.30644267457 -1.8670441419 -4.4260599916 50.694330275 78.034534621 -566.61766826 -707.71028427 
70016.750104 85097.031231 22241.032168 15525.061554 29182.959368 40137.642717 40137.642731 29182.959494 15525.061528 
22241.032067 85097.031266 70016.750093 -707.71028626 -566.61766842 78.034534583 50.694330213 -4.4260600086 -1.8670441391 
0.30644267477 -0.020189399636 0 0 0.41417239974 -2.3305579326 -6.1303213868 46.600039728 75.673703253 
-632.16355591 -472.12014519 79629.87295 88490.813619 16831.397131 4572.0516316 32671.655688 35818.003765 39625.584414 
39625.584393 35818.003812 32671.655741 4572.0515874 16831.397027 88490.813666 79629.872937 -472.12014585 -632.16355606 
75.673703218 46.600039649 -6.1303214069 -2.3305579299 0.41417239985 0 0 -2.606369472 -7.6019409566 
42.567083463 61.549312093 -810.58127765 -824.41136473 79769.134114 88262.355163 18550.592803 2741.377628 35034.963238 
39528.050617 42338.090876 29115.851479 29115.851461 42338.09077 39528.050714 35034.963262 2741.3775649 18550.592678 
88262.355231 79769.134099 -824.41136684 -810.58127762 61.549312141 42.567083412 -7.6019409703 -2.6063694685 0 
0 -8.4933555449 21.899610449 60.364253412 -856.57581616 -1367.4204828 70567.759951 88958.248418 21019.482498 
1883.5303138 32540.480448 36696.240718 45299.123101 36030.073261 25586.040771 25586.040818 36030.073273 45299.123012 
36696.240741 32540.480526 1883.530277 21019.482341 88958.248463 70567.759935 -1367.4204837 -856.57581344 60.364253411 
21.899610366 -8.493355551 0 0 12.257095038 86.437109006 -1069.5780908 -2295.5553358 52766.491349 
85017.097638 22012.649729 6200.5152628 29366.430291 33016.825219 45913.850404 37987.122878 31492.830435 24908.773769 
24908.773942 31492.830458 37987.122759 45913.850306 33016.825302 29366.430424 6200.515176 22012.649567 85017.097672 
52766.491328 -2295.555334 -1069.5780923 86.437108883 12.257094834 0 0 131.15436166 -375.06064282 
-2955.711193 26494.871733 70434.338894 34454.166146 10194.125454 24131.084634 31065.579087 44827.478124 39865.966644 
35959.550276 28785.234468 26101.99423 26101.994181 28785.234583 35959.550237 39865.966719 44827.478115 31065.579182 
24131.084752 10194.125372 34454.166031 70434.338917 26494.871716 -2955.7111964 -375.06063973 131.15436153 0 
0 -85.499901368 -2706.309438 5054.6103118 53893.640339 54038.313008 18094.362519 20786.494326 29829.609636 
42222.086709 37460.686462 33019.18672 23860.968338 25623.740986 29847.183963 29847.183455 25623.740854 23860.968594 
33019.186595 37460.686408 42222.086716 29829.609779 20786.494385 18094.362469 54038.312954 53893.64034 5054.610303 
-2706.3094311 -85.499899423 0 0 -2385.027149 -4601.3856957 28288.009671 54344.285278 32232.47291 
15101.129042 19423.093453 36747.570028 38764.408 36497.255621 23468.227973 16522.679173 22576.742531 36733.79045 
36733.79056 22576.74241 16522.678782 23468.227901 36497.255532 38764.407982 36747.569984 19423.093551 15101.128978 
32232.472939 54344.28521 28288.009687 -4601.3856841 -2385.0271481 0 0 -3186.9131616 1490.8408625 
28825.366743 40560.183664 33193.182844 24232.184135 21380.990293 24551.971566 31534.986348 30658.336704 28167.345903 
25500.094526 29192.99579 29178.051348 29178.051631 29192.995989 25500.094176 28167.34589 30658.336848 31534.986379 
24551.971428 21380.990231 24232.184177 33193.182837 40560.18366 28825.366712 1490.8408898 -3186.9131577 0 
0 -3660.171338 4898.6722411 25455.926416 34303.58518 26130.123181 16801.142722 24731.879257 30822.873837 
26339.371634 25279.455787 25930.408057 36536.443254 37414.793082 31219.61419 31219.614181 37414.792909 36536.443437 
25930.408235 25279.455757 26339.371444 30822.873974 24731.879426 16801.142566 26130.123016 34303.585296 25455.926691 
4898.6720628 -3660.1713387 0 0 -1935.4910526 -2576.8626219 25180.529203 36948.385284 11389.507995 
163.23268586 19273.884255 42518.836754 43285.643789 22610.422513 22394.488377 31904.390718 39314.497198 50118.706804 
50118.706679 39314.497179 31904.390901 22394.488332 22610.422431 43285.643986 42518.836948 19273.884172 163.23252359 
11389.508044 36948.385397 25180.529156 -2576.8626365 -1935.4910555 0 0 146.64201341 -1263.1907841 
-1374.929998 17048.058032 47641.756391 63324.082955 72943.537335 91962.79643 122172.89898 162169.76968 205982.26676 
243905.15652 296433.1212 338454.86539 338454.86549 296433.12129 243905.15651 205982.26677 162169.76977 122172.899 
91962.79627 72943.537307 63324.083069 47641.756437 17048.057966 -1374.9300117 -1263.1907805 146.64201632 0 
0 6.1416212848 38.955424067 -71.051616989 -577.19767787 -889.02082511 7021.2173155 16838.000344 25903.578833 
37472.186037 59090.463736 100963.82372 161754.47624 234275.08653 290724.63324 290724.63321 234275.08653 161754.47623 
100963.8237 59090.463695 37472.186007 25903.578859 16838.000357 7021.2173038 -889.02084238 -577.19767486 -71.051617531 
38.955424239 6.1416211506 0 0 -0.35057653018 3.8174392822 12.952293977 -64.013523319 -299.42269211 
-745.48259493 -1074.6989439 36.758927488 2532.9619526 7759.5922695 18929.684255 42304.35182 80407.631664 123753.76926 
123753.76925 80407.631655 42304.351811 18929.684245 7759.5922684 2532.9619584 36.758934316 -1074.698946 -745.48259511 
-299.42269218 -64.013522184 12.952294499 3.8174392827 -0.35057653678 0 0 -0.0049571370167 -0.13553127412 
-0.50004327395 1.5253689509 8.9514014807 -62.91769676 -225.89325318 -388.44560513 -678.61687724 -1256.8662632 -2160.7837756 
-1696.564338 473.19137679 7968.099291 7968.0992937 473.19137433 -1696.5643368 -2160.7837741 -1256.8662627 -678.61687774 
-388.4456053 -225.89325334 -62.917696525 8.9514014813 1.5253688858 -0.50004328807 -0.1355312742 -0.004957136799 0 
0 -0.0013239369352 0.0059359944883 0.00086463001 -0.095397423762 0.78908781354 1.0397948201 7.3041034341 -11.341664131 
-111.46433931 -397.41703572 -812.89901446 -1911.4158242 -3007.8931946 -3748.1442079 -3748.1442092 -3007.8931932 -1911.4158241 
-812.89901406 -397.41703556 -111.46433933 -11.341664101 7.3041034577 1.0397948262 0.7890878184 -0.095397418595 0.00086462998675 
0.0059359945247 -0.0013239369197 0 0 -8.1144671192e-05 0.0025621684923 0.0037809636048 -0.011694498333 -0.019575062239 
-0.029632277805 0.94833563513 2.0205142334 3.7190769024 -2.5095627576 -51.375923862 -359.54498947 -718.64683934 -649.42774235 
-649.42774259 -718.64683895 -359.54498951 -51.375923874 -2.5095627669 3.7190769071 2.0205142361 0.94833563883 -0.029632278516 
-0.019575061772 -0.011694498256 0.0037809635503 0.0025621684839 -8.1144673476e-05 0 0 3.9847231497e-05 1.2300978306e-05 
-0.00057500710043 0.0010557027713 -0.001224925473 -0.00042900687386 -0.020327635492 0.10421013582 0.29747689774 0.3772652858 3.3338836959 
34.226978385 82.689230275 76.446861012 76.446861081 82.68923024 34.2269784 3.3338836964 0.3772652851 0.29747689636 
0.10421013538 -0.020327635476 -0.0004290068916 -0.0012249253792 0.0010557027631 -0.00057500709375 1.2300978499e-05 3.9847231395e-05 0 
0 1.8056362869e-06 -2.5650094164e-05 -7.1768692217e-05 0.00020610547479 0.00032201178159 0.0004341364346 -0.0021258900611 -0.032532344085 
-0.045664255562 -0.033725022873 1.537971042 16.759786545 21.418572699 21.075576518 21.075576509 21.418572684 16.759786546 
1.5379710426 -0.033725022811 -0.045664255635 -0.032532344126 -0.0021258900647 0.00043413644383 0.00032201177855 0.00020610547324 -7.1768690959e-05 
-2.5650094198e-05 1.8056362969e-06 0 0 -5.9240595619e-07 3.3957252267e-07 1.8613734302e-05 8.2416743578e-06 -9.075574717e-05 
-0.00031521864939 -0.00022396906559 -0.0027272638744 0.0011872857007 -0.0054627958346 0.041761088997 0.4802738394 -1.4902621126 -0.65900482857 
-0.65900483163 -1.4902621119 0.4802738388 0.041761088957 -0.0054627958379 0.0011872857107 -0.002727263876 -0.00022396906644 -0.00031521864866 
-9.075574609e-05 8.2416741776e-06 1.8613734055e-05 3.3957251688e-07 -5.9240595879e-07 0 0 1.2047986144e-08 1.2331321352e-07 
7.7326603227e-07 -2.9074134909e-06 -1.5960694654e-05 -4.5810948632e-05 4.1421013737e-05 0.00063316442011 0.00080532042205 0.00050151454824 -0.020752314287 
-0.42327347944 -0.30787248997 -0.38985223697 -0.38985223652 -0.30787248983 -0.42327347918 -0.020752314288 0.0005015145455 0.00080532042336 
0.00063316442035 4.1421013627e-05 -4.5810948707e-05 -1.5960694459e-05 -2.9074134754e-06 7.7326601718e-07 1.233132141e-07 1.2047986198e-08 0 
0 8.7182086289e-10 -3.0103913381e-09 -2.4028176114e-07 -5.2402671438e-07 9.2680524996e-07 1.1107458236e-05 1.6171111618e-05 4.1963075912e-05 
-3.7285320287e-05 0.00013595713946 -0.0014760150951 -0.030133275918 0.024939706099 0.0058086789124 0.0058086790116 0.024939706088 -0.030133275889 
-0.001476015095 0.00013595713957 -3.7285320459e-05 4.1963075913e-05 1.6171111648e-05 1.110745822e-05 9.268052442e-07 -5.240267086e-07 -2.4028175874e-07 
-3.0103913637e-09 8.7182086398e-10 0 0 -7.4747866702e-11 -7.9952163914e-10 5.1184232427e-10 5.7162822375e-08 2.560487307e-07 
1.3022909737e-06 1.400776772e-07 -4.9269991277e-06 -8.0546056205e-06 -3.8816794387e-05 6.0845929589e-05 0.0051672214701 0.0039922890945 0.0043015884222 
0.0043015884175 0.0039922890965 0.0051672214672 6.0845929527e-05 -3.8816794391e-05 -8.0546056311e-06 -4.9269991255e-06 1.4007768295e-07 1.3022909805e-06 
2.5604872951e-07 5.7162822015e-08 5.1184232215e-10 -7.9952163729e-10 -7.4747866741e-11 0 0 0 0 
0 0 0 0 0 0 0 0 0 
0 0 0 0 0 0 0 0 0 
0 0 0 0 0 0 0 0 0 

dose 1 900 double
0 0 0 0 0 0 0 0 0 
0 0 0 0 0 0 0 0 0 
0 0 0 0 0 0 0 0 0 
0 0 0 0 1.3881440982e-07 -6.7751819017e-07 8.0216606475e-07 9.1920752444e-06 -0.00011027106153 
-0.00041203630445 0.001534665403 -0.0063937454548 -0.046709595764 0.028322070659 0.93904843605 1.1726400741 -11.700065278 -29.626505313 
-29.626505288 -11.70006528 1.1726400737 0.9390484312 0.02832207029 -0.046709595875 -0.0063937454814 0.001534665412 -0.00041203630249 
-0.00011027106166 9.1920752278e-06 8.0216604288e-07 -6.7751819218e-07 1.3881440999e-07 0 0 -8.303422915e-07 1.4715673074e-06 
1.6401800913e-05 -7.2201341714e-05 -0.00024563716734 0.0012517843379 -0.0076382221136 -0.055557901203 0.087362945242 0.63914401843 -2.095761361 
-26.038034168 -49.938514395 7.3389733621 7.3389736038 -49.938514293 -26.038034123 -2.0957613655 0.63914401776 0.08736294472 
-0.055557901219 -0.0076382221131 0.0012517843377 -0.00024563716819 -7.2201341376e-05 1.6401800958e-05 1.471567284e-06 -8.3034229249e-07 0 
0 3.1191650698e-06 1.677660466e-05 -6.4728431633e-05 -0.00018170121894 0.0016699945343 -0.0064717113559 -0.053610198296 0.19966992194 
0.68507602294 -7.2040763979 -32.716201599 18.250405612 252.09568705 354.25747217 354.25747196 252.09568733 18.250405679 
-32.716201598 -7.2040763708 0.68507602333 0.19966992149 -0.053610198274 -0.0064717113487 0.0016699945345 -0.00018170121824 -6.4728431464e-05 
1.6776604647e-05 3.1191650479e-06 0 0 1.2921527816e-05 -9.0382545008e-05 -0.00026615422937 0.0020082719498 -0.0098211544485 
-0.04262437001 0.28324558186 0.931548173 -4.7937647766 -28.821547248 197.29552781 625.28933084 855.2033123 850.06167941 
850.06167851 855.20331125 625.28933089 197.29552776 -28.821547226 -4.7937647594 0.9315481732 0.28324558184 -0.042624370019 
-0.0098211544469 0.0020082719468 -0.00026615422828 -9.0382544929e-05 1.2921527899e-05 0 0 -0.00015810620027 -0.00026434549803 
0.0023421573301 -0.011137722031 -0.041920296056 0.37099853203 1.1822551894 -4.8224147439 -18.729728769 454.19204756 1131.1277021 
1347.3055424 1320.0570718 1309.3211168 1309.3211158 1320.0570703 1347.305541 1131.127702 454.19204732 -18.729728763 
-4.8224147414 1.1822551886 0.37099853177 -0.041920296067 -0.011137722016 0.0023421573247 -0.00026434549882 -0.00015810619968 0 
0 -0.00042697429149 0.0030728419147 -0.012256035993 -0.05992274138 0.39023512482 1.31501188 -3.6726957541 -13.020206567 
657.4173683 1546.613843 1671.3999296 1600.7015324 1752.6776382 1980.7717366 1980.7717382 1752.6776392 1600.7015312 
1671.3999288 1546.6138432 657.41736785 -13.020206586 -3.6726957529 1.3150118794 0.39023512398 -0.05992274155 -0.012256035972 
0.0030728419151 -0.00042697428953 0 0 0.0039759860788 -0.015544792958 -0.080879649752 0.31761118534 1.2668294838 
-3.8388082948 -10.573968129 792.98901963 1774.5779486 1925.5668636 1742.1742314 1921.374068 2250.0832554 2417.6709541 
2417.6709539 2250.0832553 1921.3740679 1742.17423 1925.5668629 1774.5779488 792.98901905 -10.573968139 -3.8388082948 
1.2668294831 0.31761118431 -0.080879649946 -0.015544792926 0.0039759860845 0 0 -0.015388086452 -0.1019259393 
0.24932588823 1.0067650858 -5.725599808 -14.79493362 794.93882518 1845.3495087 2019.5550603 1989.4068533 2068.7025378 
2486.3463222 2956.6604738 3094.4828663 3094.4828656 2956.660473 2486.3463229 2068.7025373 1989.4068517 2019.5550598 
1845.349509 794.9388246 -14.794933635 -5.7255998042 1.0067650857 0.24932588754 -0.1019259394 -0.01538808642 0 
0 -0.10408763843 0.046789429122 0.84293423978 -6.2185573243 -21.367872364 665.49497993 1784.2683691 2042.9289536 
2064.8780703 2040.7413137 2519.316221 3194.5717552 3444.7145015 3573.8895237 3573.8895241 3444.7145003 3194.571756 
2519.3162207 2040.7413131 2064.8780689 2042.9289527 1784.2683692 665.4949794 -21.367872372 -6.2185573003 0.84293423895 
0.04678942834 -0.10408763848 0 0 -0.014907445457 0.90993808052 -8.1093681523 -33.420142885 449.17197255 
1548.791965 1981.7530918 2086.6012173 2055.5863424 2609.9593972 3399.6464693 3840.0485449 4022.667731 4463.562384 
4463.5623833 4022.6677305 3840.0485445 3399.6464701 2609.9593969 2055.5863427 2086.6012151 1981.7530905 1548.7919651 
449.17197218 -33.420142856 -8.1093681662 0.9099380779 -0.014907447172 0 0 1.4272508598 -1.6416334885 
-35.125315947 178.68374905 1136.7992674 1789.6283538 1858.8468008 2014.3078891 2475.9271543 3403.6413185 3864.0840637 
4202.7037184 4736.2174396 5891.312566 5891.3125677 4736.2174408 4202.7037176 3864.0840657 3403.6413202 2475.9271551 
2014.3078886 1858.8467982 1789.6283527 1136.7992672 178.68374884 -35.125315964 -1.6416334671 1.4272508558 0 
0 1.4968155606 -29.262520232 -4.9935425803 635.37122901 1507.942292 1775.585496 1881.1430596 2389.3533929 
3056.8311303 3716.3387893 4266.0390773 4981.4107991 5695.5740951 8098.2357282 8098.2357247 5695.5740965 4981.4108006 
4266.0390732 3716.3387903 3056.8311327 2389.3533946 1881.1430596 1775.5854946 1507.9422915 635.37122861 -4.9935425525 
-29.262520136 1.4968155744 0 0 -17.551083771 -71.816103391 215.00585137 956.42276531 1548.639522 
1820.4892327 2060.1286524 2667.8101385 3115.1056916 3877.030735 4657.1245848 5638.040048 7242.7252978 10748.904369 
10748.904371 7242.7252941 5638.0400441 4657.1245828 3877.0307337 3115.1056928 2667.8101394 2060.1286537 1820.4892324 
1548.6395219 956.42276452 215.00585165 -71.816103233 -17.551083748 0 0 -36.818594968 -50.228424167 
340.62111849 953.16381023 1480.5511309 1866.3899418 2147.8033106 2729.1586666 3221.662709 4309.3485515 5719.2701681 
7944.0931721 10655.704172 12790.059984 12790.05999 10655.70417 7944.0931697 5719.2701683 4309.3485529 3221.6627058 
2729.1586663 2147.8033127 1866.3899411 1480.5511295 953.16380926 340.62111865 -50.228423877 -36.818594936 0 
0 -40.857636136 -11.685602189 351.17023146 878.77633002 1250.8837019 1580.9149257 1938.2824822 2639.9836796 
3264.4404459 4327.2568568 5596.239953 7930.2526109 10749.447652 12995.848552 12995.848552 10749.447652 7930.2526141 
5596.2399533 4327.2568585 3264.4404476 2639.9836792 1938.2824815 1580.9149217 1250.8837027 878.7763316 351.17023238 
-11.685603574 -40.857636021 0 0 -14.505172321 -57.032496025 216.18368472 760.97102543 1123.898259 
1277.6050644 1671.843678 2450.7579729 3234.6126766 3862.6379955 4799.1161046 5862.093365 7711.0911107 11169.278479 
11169.278478 7711.0911091 5862.093365 4799.1161059 3862.6379973 3234.6126796 2450.7579717 1671.8436766 1277.605065 
1123.8982599 760.97102511 216.18368393 -57.032496129 -14.50517227 0 0 0.55987499076 -2.048812192 
-6.1770471805 25.867669488 148.14741984 319.6374393 520.46110908 787.04126924 1150.6384425 1649.1583956 2490.9248591 
3626.4739933 5059.7025816 8017.8259966 8017.8259966 5059.7025818 3626.4739933 2490.9248591 1649.1583956 1150.6384423 
787.04126898 520.46110918 319.63743967 148.14741979 25.867669304 -6.1770472086 -2.0488121856 0.55987500052 0 
0 0.0064539050011 0.079161912627 0.0044717242345 -1.0816908193 -4.0176998969 11.214185992 51.154018075 113.28613862 
206.87304273 378.52203371 722.41077872 1293.3280998 2165.090889 3299.0541732 3299.0541728 2165.0908889 1293.3280997 
722.4107785 378.52203356 206.87304268 113.28613872 51.154018055 11.214185944 -4.0176999257 -1.0816908064 0.0044717226982 
0.079161912886 0.0064539046475 0 0 -0.00067434444515 0.0041986793944 0.02768319707 -0.051682162003 -0.74212181253 
-2.506959315 -5.4738817627 -5.0874332324 1.7603081771 25.49731661 76.961054721 209.20649946 435.3999804 783.28532067 
783.28532059 435.39998036 209.20649942 76.961054714 25.497316623 1.7603081942 -5.0874332239 -5.4738817698 -2.5069593155 
-0.7421218122 -0.051682159574 0.027683198648 0.0041986793901 -0.00067434445891 0 0 -1.7363335376e-05 -0.00040078786163 
-0.0012382363029 0.0029160728878 0.018611146788 -0.089526045699 -0.6741519043 -1.4371513513 -2.9647336446 -6.0151544934 -12.683351755 
-18.694893122 -35.190739904 -15.161080112 -15.161080078 -35.190739915 -18.694893113 -12.683351749 -6.0151544911 -2.9647336453 
-1.4371513515 -0.67415190484 -0.089526045161 0.018611146791 0.0029160726611 -0.0012382363215 -0.00040078786183 -1.7363334683e-05 0 
0 -5.2359544042e-06 1.5506479143e-05 6.2124070433e-05 -0.00031040907678 0.0013342976479 0.0018053078381 0.018786493604 -0.0074460490226 
-0.24903385366 -1.2647218199 -3.465907101 -10.721490214 -21.162068323 -21.571156932 -21.571156939 -21.162068315 -10.721490213 
-3.4659071 -1.2647218194 -0.24903385362 -0.0074460489347 0.018786493648 0.0018053078374 0.0013342976434 -0.0003104090675 6.2124069569e-05 