# vtk DataFile Version 5.1
vtk output
ASCII
DATASET UNSTRUCTURED_GRID
POINTS 961 double
0 1 0 1 1 0 1 0 0 
0 0 0 0 0.96666666667 0 0 0.93333333333 0 
0 0.9 0 0 0.86666666667 0 0 0.83333333333 0 
0 0.8 0 0 0.76666666667 0 0 0.73333333333 0 
0 0.7 0 0 0.66666666667 0 0 0.63333333333 0 
0 0.6 0 0 0.56666666667 0 0 0.53333333334 0 
0 0.5 0 0 0.46666666667 0 0 0.43333333334 0 
0 0.4 0 0 0.36666666667 0 0 0.33333333333 0 
0 0.3 0 0 0.26666666667 0 0 0.23333333333 0 
0 0.2 0 0 0.16666666667 0 0 0.13333333333 0 
0 0.1 0 0 0.066666666667 0 0 0.033333333333 0 
0.033333333333 0 0 0.066666666667 0 0 0.1 0 0 
0.13333333333 0 0 0.16666666667 0 0 0.2 0 0 
0.23333333333 0 0 0.26666666667 0 0 0.3 0 0 
0.33333333333 0 0 0.36666666667 0 0 0.4 0 0 
0.43333333333 0 0 0.46666666667 0 0 0.5 0 0 
0.53333333333 0 0 0.56666666667 0 0 0.6 0 0 
0.63333333333 0 0 0.66666666667 0 0 0.7 0 0 
0.73333333333 0 0 0.76666666667 0 0 0.8 0 0 
0.83333333333 0 0 0.86666666667 0 0 0.9 0 0 
0.93333333333 0 0 0.96666666667 0 0 1 0.033333333333 0 
1 0.066666666667 0 1 0.1 0 1 0.13333333333 0 
1 0.16666666667 0 1 0.2 0 1 0.23333333333 0 
1 0.26666666667 0 1 0.3 0 1 0.33333333333 0 
1 0.36666666667 0 1 0.4 0 1 0.43333333333 0 
1 0.46666666667 0 1 0.5 0 1 0.53333333333 0 
1 0.56666666667 0 1 0.6 0 1 0.63333333333 0 
1 0.66666666667 0 1 0.7 0 1 0.73333333333 0 
1 0.76666666667 0 1 0.8 0 1 0.83333333333 0 
1 0.86666666667 0 1 0.9 0 1 0.93333333333 0 
1 0.96666666667 0 0.96666666667 1 0 0.93333333333 1 0 
0.9 1 0 0.86666666667 1 0 0.83333333333 1 0 
0.8 1 0 0.76666666667 1 0 0.73333333333 1 0 
0.7 1 0 0.66666666667 1 0 0.63333333333 1 0 
0.6 1 0 0.56666666667 1 0 0.53333333334 1 0 
0.5 1 0 0.46666666667 1 0 0.43333333334 1 0 
0.4 1 0 0.36666666667 1 0 0.33333333333 1 0 
0.3 1 0 0.26666666667 1 0 0.23333333333 1 0 
0.2 1 0 0.16666666667 1 0 0.13333333333 1 0 
0.1 1 0 0.066666666667 1 0 0.033333333333 1 0 
0.033333333333 0.033333333333 0 0.033333333333 0.066666666667 0 0.033333333333 0.1 0 
0.033333333333 0.13333333333 0 0.033333333333 0.16666666667 0 0.033333333333 0.2 0 
0.033333333333 0.23333333333 0 0.033333333333 0.26666666667 0 0.033333333333 0.3 0 
0.033333333333 0.33333333333 0 0.033333333333 0.36666666667 0 0.033333333333 0.4 0 
0.033333333333 0.43333333334 0 0.033333333333 0.46666666667 0 0.033333333333 0.5 0 
0.033333333333 0.53333333334 0 0.033333333333 0.56666666667 0 0.033333333333 0.6 0 
0.033333333333 0.63333333333 0 0.033333333333 0.66666666667 0 0.033333333333 0.7 0 
0.033333333333 0.73333333333 0 0.033333333333 0.76666666667 0 0.033333333333 0.8 0 
0.033333333333 0.83333333333 0 0.033333333333 0.86666666667 0 0.033333333333 0.9 0 
0.033333333333 0.93333333333 0 0.033333333333 0.96666666667 0 0.066666666667 0.033333333333 0 
0.066666666667 0.066666666667 0 0.066666666667 0.1 0 0.066666666667 0.13333333333 0 
0.066666666667 0.16666666667 0 0.066666666667 0.2 0 0.066666666667 0.23333333333 0 
0.066666666667 0.26666666667 0 0.066666666667 0.3 0 0.066666666667 0.33333333333 0 
0.066666666667 0.36666666667 0 0.066666666667 0.4 0 0.066666666667 0.43333333333 0 
0.066666666667 0.46666666667 0 0.066666666667 0.5 0 0.066666666667 0.53333333333 0 
0.066666666667 0.56666666667 0 0.066666666667 0.6 0 0.066666666667 0.63333333333 0 
0.066666666667 0.66666666667 0 0.066666666667 0.7 0 0.066666666667 0.73333333333 0 
0.066666666667 0.76666666667 0 0.066666666667 0.8 0 0.066666666667 0.83333333333 0 
0.066666666667 0.86666666667 0 0.066666666667 0.9 0 0.066666666667 0.93333333333 0 
0.066666666667 0.96666666667 0 0.1 0.033333333333 0 0.1 0.066666666667 0 
0.1 0.1 0 0.1 0.13333333333 0 0.1 0.16666666667 0 
0.1 0.2 0 0.1 0.23333333333 0 0.1 0.26666666667 0 
0.1 0.3 0 0.1 0.33333333333 0 0.1 0.36666666667 0 
0.1 0.4 0 0.1 0.43333333333 0 0.1 0.46666666667 0 
0.1 0.5 0 0.1 0.53333333333 0 0.1 0.56666666667 0 
0.1 0.6 0 0.1 0.63333333333 0 0.1 0.66666666667 0 
0.1 0.7 0 0.1 0.73333333333 0 0.1 0.76666666667 0 
0.1 0.8 0 0.1 0.83333333333 0 0.1 0.86666666667 0 
0.1 0.9 0 0.1 0.93333333333 0 0.1 0.96666666667 0 
0.13333333333 0.033333333333 0 0.13333333333 0.066666666667 0 0.13333333333 0.1 0 
0.13333333333 0.13333333333 0 0.13333333333 0.16666666667 0 0.13333333333 0.2 0 
0.13333333333 0.23333333333 0 0.13333333333 0.26666666667 0 0.13333333333 0.3 0 
0.13333333333 0.33333333333 0 0.13333333333 0.36666666667 0 0.13333333333 0.4 0 
0.13333333333 0.43333333333 0 0.13333333333 0.46666666667 0 0.13333333333 0.5 0 
0.13333333333 0.53333333333 0 0.13333333333 0.56666666667 0 0.13333333333 0.6 0 
0.13333333333 0.63333333333 0 0.13333333333 0.66666666667 0 0.13333333333 0.7 0 
0.13333333333 0.73333333333 0 0.13333333333 0.76666666667 0 0.13333333333 0.8 0 
0.13333333333 0.83333333333 0 0.13333333333 0.86666666667 0 0.13333333333 0.9 0 
0.13333333333 0.93333333333 0 0.13333333333 0.96666666667 0 0.16666666667 0.033333333333 0 
0.16666666667 0.066666666667 0 0.16666666667 0.1 0 0.16666666667 0.13333333333 0 
0.16666666667 0.16666666667 0 0.16666666667 0.2 0 0.16666666667 0.23333333333 0 
0.16666666667 0.26666666667 0 0.16666666667 0.3 0 0.16666666667 0.33333333333 0 
0.16666666667 0.36666666667 0 0.16666666667 0.4 0 0.16666666667 0.43333333333 0 
0.16666666667 0.46666666667 0 0.16666666667 0.5 0 0.16666666667 0.53333333333 0 
0.16666666667 0.56666666667 0 0.16666666667 0.6 0 0.16666666667 0.63333333333 0 
0.16666666667 0.66666666667 0 0.16666666667 0.7 0 0.16666666667 0.73333333333 0 
0.16666666667 0.76666666667 0 0.16666666667 0.8 0 0.16666666667 0.83333333333 0 
0.16666666667 0.86666666667 0 0.16666666667 0.9 0 0.16666666667 0.93333333333 0 
0.16666666667 0.96666666667 0 0.2 0.033333333333 0 0.2 0.066666666667 0 
0.2 0.1 0 0.2 0.13333333333 0 0.2 0.16666666667 0 
0.2 0.2 0 0.2 0.23333333333 0 0.2 0.26666666667 0 
0.2 0.3 0 0.2 0.33333333333 0 0.2 0.36666666667 0 
0.2 0.4 0 0.2 0.43333333333 0 0.2 0.46666666667 0 
0.2 0.5 0 0.2 0.53333333333 0 0.2 0.56666666667 0 
0.2 0.6 0 0.2 0.63333333333 0 0.2 0.66666666667 0 
0.2 0.7 0 0.2 0.73333333333 0 0.2 0.76666666667 0 
0.2 0.8 0 0.2 0.83333333333 0 0.2 0.86666666667 0 
0.2 0.9 0 0.2 0.93333333333 0 0.2 0.96666666667 0 
0.23333333333 0.033333333333 0 0.23333333333 0.066666666667 0 0.23333333333 0.1 0 
0.23333333333 0.13333333333 0 0.23333333333 0.16666666667 0 0.23333333333 0.2 0 
0.23333333333 0.23333333333 0 0.23333333333 0.26666666667 0 0.23333333333 0.3 0 
0.23333333333 0.33333333333 0 0.23333333333 0.36666666667 0 0.23333333333 0.4 0 
0.23333333333 0.43333333333 0 0.23333333333 0.46666666667 0 0.23333333333 0.5 0 
0.23333333333 0.53333333333 0 0.23333333333 0.56666666667 0 0.23333333333 0.6 0 
0.23333333333 0.63333333333 0 0.23333333333 0.66666666667 0 0.23333333333 0.7 0 
0.23333333333 0.73333333333 0 0.23333333333 0.76666666667 0 0.23333333333 0.8 0 
0.23333333333 0.83333333333 0 0.23333333333 0.86666666667 0 0.23333333333 0.9 0 
0.23333333333 0.93333333333 0 0.23333333333 0.96666666667 0 0.26666666667 0.033333333333 0 
0.26666666667 0.066666666667 0 0.26666666667 0.1 0 0.26666666667 0.13333333333 0 
0.26666666667 0.16666666667 0 0.26666666667 0.2 0 0.26666666667 0.23333333333 0 
0.26666666667 0.26666666667 0 0.26666666667 0.3 0 0.26666666667 0.33333333333 0 
0.26666666667 0.36666666667 0 0.26666666667 0.4 0 0.26666666667 0.43333333333 0 
0.26666666667 0.46666666667 0 0.26666666667 0.5 0 0.26666666667 0.53333333333 0 
0.26666666667 0.56666666667 0 0.26666666667 0.6 0 0.26666666667 0.63333333333 0 
0.26666666667 0.66666666667 0 0.26666666667 0.7 0 0.26666666667 0.73333333333 0 
0.26666666667 0.76666666667 0 0.26666666667 0.8 0 0.26666666667 0.83333333333 0 
0.26666666667 0.86666666667 0 0.26666666667 0.9 0 0.26666666667 0.93333333333 0 
0.26666666667 0.96666666667 0 0.3 0.033333333333 0 0.3 0.066666666667 0 
0.3 0.1 0 0.3 0.13333333333 0 0.3 0.16666666667 0 
0.3 0.2 0 0.3 0.23333333333 0 0.3 0.26666666667 0 
0.3 0.3 0 0.3 0.33333333333 0 0.3 0.36666666667 0 
0.3 0.4 0 0.3 0.43333333333 0 0.3 0.46666666667 0 
0.3 0.5 0 0.3 0.53333333333 0 0.3 0.56666666667 0 
0.3 0.6 0 0.3 0.63333333333 0 0.3 0.66666666667 0 
0.3 0.7 0 0.3 0.73333333333 0 0.3 0.76666666667 0 
0.3 0.8 0 0.3 0.83333333333 0 0.3 0.86666666667 0 
0.3 0.9 0 0.3 0.93333333333 0 0.3 0.96666666667 0 
0.33333333333 0.033333333333 0 0.33333333333 0.066666666667 0 0.33333333333 0.1 0 
0.33333333333 0.13333333333 0 0.33333333333 0.16666666667 0 0.33333333333 0.2 0 
0.33333333333 0.23333333333 0 0.33333333333 0.26666666667 0 0.33333333333 0.3 0 
0.33333333333 0.33333333333 0 0.33333333333 0.36666666667 0 0.33333333333 0.4 0 
0.33333333333 0.43333333333 0 0.33333333333 0.46666666667 0 0.33333333333 0.5 0 
0.33333333333 0.53333333333 0 0.33333333333 0.56666666667 0 0.33333333333 0.6 0 
0.33333333333 0.63333333333 0 0.33333333333 0.66666666667 0 0.33333333333 0.7 0 
0.33333333333 0.73333333333 0 0.33333333333 0.76666666667 0 0.33333333333 0.8 0 
0.33333333333 0.83333333333 0 0.33333333333 0.86666666667 0 0.33333333333 0.9 0 
0.33333333333 0.93333333333 0 0.33333333333 0.96666666667 0 0.36666666667 0.033333333333 0 
0.36666666667 0.066666666667 0 0.36666666667 0.1 0 0.36666666667 0.13333333333 0 
0.36666666667 0.16666666667 0 0.36666666667 0.2 0 0.36666666667 0.23333333333 0 
0.36666666667 0.26666666667 0 0.36666666667 0.3 0 0.36666666667 0.33333333333 0 
0.36666666667 0.36666666667 0 0.36666666667 0.4 0 0.36666666667 0.43333333333 0 
0.36666666667 0.46666666667 0 0.36666666667 0.5 0 0.36666666667 0.53333333333 0 
0.36666666667 0.56666666667 0 0.36666666667 0.6 0 0.36666666667 0.63333333333 0 
0.36666666667 0.66666666667 0 0.36666666667 0.7 0 0.36666666667 0.73333333333 0 
0.36666666667 0.76666666667 0 0.36666666667 0.8 0 0.36666666667 0.83333333333 0 
0.36666666667 0.86666666667 0 0.36666666667 0.9 0 0.36666666667 0.93333333333 0 
0.36666666667 0.96666666667 0 0.4 0.033333333333 0 0.4 0.066666666667 0 
0.4 0.1 0 0.4 0.13333333333 0 0.4 0.16666666667 0 
0.4 0.2 0 0.4 0.23333333333 0 0.4 0.26666666667 0 
0.4 0.3 0 0.4 0.33333333333 0 0.4 0.36666666667 0 
[...]
CELL_DATA 900
FIELD FieldData 3
radiation%20flux%20density 1 900 double
0 0 0 0 0 0 0 0 0 
0 0 0 0 0 0 0 0 0 
0 0 0 0 0 0 0 0 0 
0 0 0 0 2.5468307699e-06 -8.9182542944e-06 0.00016332556165 -0.00070975264151 -0.0006348471239 
0.0037141946206 0.0048007863367 -0.051599708446 -0.21506110092 -1.1911138074 -3.0142632337 -3.917151096 11.785621516 175.47733592 
175.47733589 11.785621498 -3.9171511046 -3.0142632411 -1.1911138091 -0.21506110142 -0.051599708395 0.004800786318 0.0037141946101 
-0.00063484710541 -0.00070975262826 0.00016332556482 -8.9182540184e-06 2.5468304519e-06 0 0 -1.1215289827e-05 0.00018516630904 
-0.00097360111714 -0.00025285926978 0.0067439436016 0.016899655087 0.0045177873567 -0.23333802652 -0.81870189558 -2.2182052342 3.0547707382 
263.37288455 3308.9464544 7663.4960206 7663.4960225 3308.946455 263.37288447 3.054770719 -2.2182052424 -0.81870189726 
-0.23333802644 0.0045177874486 0.016899655231 0.0067439436213 -0.00025285925014 -0.00097360110382 0.00018516631171 -1.1215289724e-05 0 
0 0.00017377560427 -0.0013040240484 0.00020953250771 0.015040281105 0.034899809741 0.038696805025 0.095871479598 -0.35067613336 
2.6541473198 96.651937478 1710.7524515 13714.746033 22687.972329 18844.550079 18844.550074 22687.972328 13714.746032 
1710.7524508 96.651937403 2.6541473117 -0.35067613375 0.095871480663 0.03869680525 0.034899809774 0.01504028112 0.00020953252458 
-0.0013040240379 0.00017377560574 0 0 -0.001397091902 0.00061649274307 0.025274836297 0.076477398907 0.11355494592 
0.2358791298 0.73346429658 17.329761605 365.90142863 5666.4751409 30015.322222 36808.779903 30695.371753 28571.196571 
28571.196572 30695.371731 36808.7799 30015.32222 5666.475139 365.90142844 17.329761597 0.73346429799 0.23587913066 
0.11355494601 0.07647739886 0.025274836298 0.00061649275394 -0.0013970918945 0 0 -0.0022298214331 0.026590664206 
0.12199828297 0.24174602925 0.75738234959 2.5875896345 34.380067669 705.25063397 11647.648989 45440.649764 51919.487632 
33143.215071 33144.211097 35894.005067 35894.005079 33144.211113 33143.215042 51919.487631 45440.649762 11647.648985 
705.2506337 34.380067664 2.5875896356 0.75738234989 0.24174602914 0.12199828296 0.026590664203 -0.0022298214284 0 
0 -0.0082790151714 0.047238978263 0.26027925315 0.81553090177 3.5483047097 42.814772587 935.98342386 18222.243906 
53094.06175 57202.149378 29964.705702 31003.924724 35412.676856 39245.507907 39245.507918 35412.676865 31003.924736 
29964.705679 57202.14938 53094.06175 18222.2439 935.98342354 42.814772576 3.5483047103 0.81553090239 0.26027925322 
0.047238978282 -0.0082790151904 0 0 -0.055659434177 -0.099402351834 0.22316985244 1.376151039 35.580622401 
937.26191203 22348.130358 56505.546517 60135.664595 31372.418106 28529.375614 34336.810805 36825.574923 36751.268864 
36751.268841 36825.574934 34336.810804 28529.375629 31372.418079 60135.664603 56505.546518 22348.130352 937.2619117 
35.580622391 1.3761510387 0.2231698527 -0.099402351881 -0.055659434219 0 0 -0.23414618353 -0.72929219161 
-0.7977724533 15.705620353 700.31814838 18152.395524 56654.733153 60353.098293 32260.029271 25645.408245 33190.419566 
37225.757215 36984.861746 31816.061057 31816.061064 36984.861717 37225.757211 33190.419588 25645.408247 32260.029245 
60353.098307 56654.733153 18152.395518 700.31814809 15.705620344 -0.7977724535 -0.72929219163 -0.23414618348 0 
0 -0.77750550892 -2.8639452614 -1.2954039296 353.56942639 11591.785177 53618.870018 62343.551295 33133.189085 
22675.686415 30102.982924 37309.247293 37407.628627 32334.747328 31582.336345 31582.336336 32334.747319 37407.628604 
37309.247293 30102.982957 22675.686414 33133.189058 62343.551301 53618.870018 11591.785173 353.56942622 -1.2954039365 
-2.863945263 -0.77750550868 0 0 -2.7325305329 -7.7923107411 88.614503045 5701.09871 45924.803877 
59273.140785 32659.991892 26250.698836 28202.045285 33998.561911 37699.818673 34031.626325 31954.390399 28615.480031 
28615.480037 31954.390384 34031.626325 37699.818664 33998.56191 28202.045322 26250.698837 32659.991858 59273.14079 
45924.803876 5701.0987081 88.614502981 -7.7923107463 -2.7325305338 0 0 -6.9008496706 -3.7543072234 
1717.2503983 29422.414456 53936.896548 34717.737734 27924.487392 28412.125457 34492.091619 36331.051325 31502.88427 
33075.297989 29398.889443 24628.088872 24628.088864 29398.889444 33075.297993 31502.884261 36331.05132 34492.091624 
28412.125478 27924.487391 34717.737709 53936.89655 29422.414455 1717.2503976 -3.754307239 -6.9008496728 0 
0 -8.7090701797 226.62466831 12310.925788 40074.756654 41684.558091 29600.227141 27911.500599 31517.613424 
35000.775882 34530.808603 31679.056669 26992.954231 26153.216557 26990.139657 26990.139643 26153.21654 26992.954238 
31679.056672 34530.808602 35000.775883 31517.613433 27911.500614 29600.227143 41684.558075 40074.756653 12310.925788 
226.62466827 -8.709070184 0 0 -2.0823544521 1858.5113263 24248.969775 40265.251186 30691.267401 
28562.612074 27947.841165 29790.730189 31047.221829 33110.317178 29051.494462 22591.754769 25199.253595 32270.5746 
32270.574589 25199.253589 22591.754764 29051.494475 33110.317183 31047.221824 29790.730192 27947.841164 28562.612076 
30691.267401 40265.251179 24248.969774 1858.5113271 -2.0823544595 0 0 15.897688962 6778.8519502 
22409.130199 30474.804282 31266.496739 28734.927318 25100.056528 24186.882319 29194.132489 27992.039542 27500.047839 
27441.40047 29961.883256 28686.090822 28686.090832 29961.88327 27441.400473 27500.047836 27992.039554 29194.132486 
24186.882311 25100.056523 28734.927323 31266.496736 30474.804276 22409.130199 6778.8519488 15.897688937 0 
0 15.466499186 7832.6429473 21233.182137 26534.503988 26652.333388 21447.852702 23434.456637 29547.148041 
27288.260108 26024.86582 26509.431264 34311.284053 34681.330746 32598.295611 32598.29559 34681.330752 34311.284064 
26509.431275 26024.86582 27288.260104 29547.148051 23434.45665 21447.852703 26652.333373 26534.503986 21233.182142 
7832.6429457 15.466499173 0 0 5.4992311548 2801.8050163 20873.66603 24994.025769 15325.39358 
14042.925979 21120.174928 31175.763759 34784.576744 26561.877873 27219.13617 30892.508874 40227.093795 46840.734859 
46840.734849 40227.093787 30892.508891 27219.136159 26561.877864 34784.576761 31175.763781 21120.174941 14042.92596 
15325.393565 24994.02578 20873.66603 2801.8050141 5.4992311352 0 0 -1.025178257 60.570644178 
2908.2414654 19072.261113 40778.05079 58328.147624 75065.867173 95583.92963 122314.52218 155557.36653 195873.28294 
238757.69518 291979.22234 328479.2529 328479.25291 291979.22235 238757.69518 195873.28294 155557.36654 122314.5222 
95583.929626 75065.867162 58328.147618 40778.050795 19072.261111 2908.2414639 60.570644108 -1.0251782566 0 
0 -0.055597642064 -0.3806351154 9.5050738576 217.81601771 1800.7571955 8113.6955888 17279.54434 28263.881534 
41777.161021 62992.5778 99555.919043 154466.84631 225865.63859 287261.67546 287261.67546 225865.63858 154466.84631 
99555.919038 62992.577794 41777.161015 28263.881532 17279.544341 8113.6955893 1800.7571949 217.81601763 9.5050738598 
-0.38063511502 -0.055597642476 0 0 -0.0065988492621 0.14265709193 0.24407120403 0.62696506433 11.237812177 
140.85640415 721.32309779 2263.1744277 5103.3966382 10428.012213 21459.964165 43221.698532 81670.998413 130103.42089 
130103.42088 81670.998407 43221.698529 21459.964163 10428.012213 5103.3966379 2263.1744283 721.32309793 140.85640415 
11.237812178 0.62696506453 0.24407120473 0.14265709224 -0.0065988493238 0 0 -0.0001743721164 0.0062561768577 
-0.00028674894259 0.017316111246 0.064647709797 0.54808742814 5.6103406617 34.033372179 145.87543023 501.28011162 1488.718844 
3870.1572357 8663.2891456 16582.006387 16582.006386 8663.2891449 3870.1572353 1488.718844 501.28011167 145.87543025 
34.033372182 5.6103406617 0.54808742808 0.064647709856 0.017316111296 -0.00028674892612 0.0062561768715 -0.00017437210773 0 
0 -2.7023837994e-05 -0.00024204439049 7.7334483385e-05 0.0042489642096 0.004377568249 0.011490542246 0.020113896743 0.085272548759 
0.92370820451 6.361892093 27.207955526 85.198890019 184.98883053 156.77899461 156.77899462 184.98883053 85.19889001 
27.207955522 6.3618920928 0.92370820445 0.085272548703 0.020113896742 0.011490542233 0.0043775682458 0.0042489642095 7.7334483209e-05 
-0.00024204439034 -2.7023837946e-05 0 0 9.5332863554e-07 2.1085080316e-05 0.00012851699684 0.00020029789652 0.00032519335537 
0.00073461327144 -0.00195125841 -0.0085572079262 -0.0041848584489 -0.10433164665 -0.61283946469 -0.28098115745 0.68861528458 0.64805077778 
0.6480507778 0.68861528469 -0.28098115746 -0.61283946469 -0.10433164665 -0.0041848584637 -0.0085572079382 -0.0019512584128 0.00073461327155 
0.00032519335534 0.0002002978961 0.0001285169966 2.1085080252e-05 9.5332861829e-07 0 0 2.5304817384e-07 2.0717694893e-06 
3.3938164269e-06 7.9076591551e-06 3.6162544945e-05 -0.00013141997665 -0.0011924331736 -0.002189323327 -0.011448535848 -0.088159975452 -0.12508626218 
-0.083131245561 -0.047940290494 -0.09495639512 -0.094956395174 -0.047940290484 -0.083131245554 -0.12508626217 -0.088159975449 -0.011448535849 
-0.0021893233302 -0.0011924331751 -0.00013141997684 3.6162544991e-05 7.9076591688e-06 3.3938164263e-06 2.0717694869e-06 2.5304817283e-07 0 
0 4.682459939e-08 1.0463940505e-07 5.4764234646e-08 1.2842795174e-06 -2.2499792974e-06 -4.5064825951e-05 -0.00015209212539 -0.00017221961103 
-0.0012586920774 -0.0058160188792 0.0022515524377 -0.0020417131155 -0.022799699379 -0.020126033787 -0.020126033792 -0.022799699386 -0.0020417131156 
0.0022515524381 -0.0058160188789 -0.0012586920773 -0.00017221961112 -0.00015209212562 -4.5064826008e-05 -2.2499793e-06 1.2842795201e-06 5.4764235433e-08 
1.0463940557e-07 4.6824599336e-08 0 0 -2.6969633284e-09 -8.7903327655e-09 4.0502167498e-08 9.7604180133e-08 -1.1621834924e-06 
-4.6017575981e-06 -2.0852429196e-06 -1.9178868122e-05 -1.3627063212e-05 0.00066675095079 0.00067829438633 -0.00014430086242 -0.0013043628573 -4.5030193841e-05 
-4.5030194089e-05 -0.0013043628583 -0.00014430086245 0.0006782943864 0.00066675095087 -1.362706317e-05 -1.917886812e-05 -2.0852429212e-06 -4.6017576094e-06 
-1.1621834957e-06 9.7604180174e-08 4.0502167593e-08 -8.7903327082e-09 -2.6969633122e-09 0 0 1.5055976491e-11 1.6161429938e-09 
8.2662873393e-09 -3.1442320371e-08 -1.7259502711e-07 9.9334643764e-08 -7.5738506711e-08 2.203782e-07 3.0682135079e-05 8.6047299103e-05 -2.5694751363e-05 
-5.8293936963e-05 1.9654997578e-05 2.5784861375e-05 2.5784861373e-05 1.9654997572e-05 -5.8293936971e-05 -2.5694751365e-05 8.6047299114e-05 3.0682135077e-05 
2.203782002e-07 -7.5738506546e-08 9.9334644004e-08 -1.7259502741e-07 -3.1442320478e-08 8.2662873176e-09 1.6161429927e-09 1.5055977559e-11 0 
0 3.717516529e-11 2.5209645723e-10 -1.1708878209e-09 -7.9657630197e-09 8.5040496616e-09 3.2322597657e-08 -6.2925157569e-09 3.775069008e-07 
3.3937689036e-06 -5.5519498428e-06 -9.2688325346e-06 -1.4683951631e-06 3.5619850377e-06 3.0574130461e-07 3.0574130584e-07 3.5619850378e-06 -1.4683951636e-06 
-9.2688325356e-06 -5.5519498436e-06 3.393768902e-06 3.7750690085e-07 -6.2925157253e-09 3.2322597725e-08 8.5040497402e-09 -7.9657630281e-09 -1.1708878235e-09 
2.520964565e-10 3.7175165232e-11 0 0 -1.3254594065e-12 -4.2649280233e-11 -2.1136212298e-10 4.7327420798e-10 3.2356186765e-09 
-2.1919948894e-09 -6.441695186e-09 1.0287603374e-09 -3.1928809876e-07 -7.286340607e-07 -2.2848287867e-08 2.3538943538e-07 -3.1826210578e-08 -3.1901325046e-08 
-3.1901325044e-08 -3.1826210578e-08 2.3538943538e-07 -2.2848287886e-08 -7.2863406078e-07 -3.1928809873e-07 1.0287603329e-09 -6.4416951953e-09 -2.1919948953e-09 
3.2356186858e-09 4.7327421039e-10 -2.1136212265e-10 -4.264928026e-11 -1.3254594124e-12 0 0 0 0 
0 0 0 0 0 0 0 0 0 
0 0 0 0 0 0 0 0 0 
0 0 0 0 0 0 0 0 0 

dose 1 900 double
0 0 0 0 0 0 0 0 0 
0 0 0 0 0 0 0 0 0 
0 0 0 0 0 0 0 0 0 
0 0 0 0 2.0095368158e-08 -4.8571156731e-08 1.3225750204e-06 -4.4950996357e-06 -1.0437168852e-05 
2.2449679306e-05 3.5593550125e-05 -0.00058123109145 -0.0022750336567 -0.011993345677 -0.036456531684 -0.047061637911 0.082891426363 1.4673523699 
1.4673523696 0.082891426142 -0.04706163803 -0.03645653177 -0.011993345695 -0.0022750336616 -0.00058123109076 3.5593549917e-05 2.2449679517e-05 
-1.0437168514e-05 -4.4950994792e-06 1.3225750495e-06 -4.8571157016e-08 2.0095365928e-08 0 0 -6.7430737513e-08 1.5016284444e-06 
-6.3560380675e-06 -8.6242825443e-06 5.3717379565e-05 0.00025425950845 0.00024477726782 -0.0028208916266 -0.012482011299 -0.035711009263 -0.025569351659 
2.1622585994 29.319687672 84.114675937 84.114675948 29.319687677 2.1622585985 -0.025569351979 -0.035711009375 -0.012482011325 
-0.0028208916223 0.00024477726897 0.00025425951018 5.3717380181e-05 -8.624282183e-06 -6.3560379195e-06 1.5016284647e-06 -6.7430740427e-08 0 
0 1.371010445e-06 -9.0838897185e-06 -7.6689270448e-06 0.00013611194253 0.00053142414438 0.00084707921898 0.0015161322233 -0.0034347697153 
0.0063403273479 0.80175383637 15.2762266 129.46739477 298.71727811 356.83349469 356.83349466 298.71727811 129.46739476 
15.276226593 0.80175383551 0.0063403272511 -0.0034347697028 0.0015161322374 0.00084707922274 0.00053142414537 0.0001361119431 -7.668926731e-06 
-9.0838896104e-06 1.3710104523e-06 0 0 -1.0190579776e-05 -8.4682500279e-06 0.0002357171755 0.0010803268012 0.0023079511102 
0.0036676460337 0.0079979834603 0.15595898652 3.2763249697 52.600812068 316.93010005 608.0956571 741.8555978 772.00816493 
772.00816485 741.85559756 608.09565703 316.93010001 52.600812049 3.2763249681 0.15595898647 0.0079979834886 0.0036676460473 
0.0023079511118 0.0010803268013 0.0002357171758 -8.4682498471e-06 -1.019057971e-05 0 0 -3.6779396915e-05 0.00021594201411 
0.0015654741194 0.0040820183021 0.010650065895 0.032550811296 0.32510203086 6.5177397505 110.34293891 546.71892025 1012.1279554 
1203.0696733 1277.0383617 1326.3853782 1326.3853782 1277.0383615 1203.069673 1012.1279553 546.71892018 110.34293887 
6.517739748 0.32510203087 0.032550811314 0.010650065899 0.0040820183012 0.0015654741192 0.00021594201416 -3.6779396867e-05 0 
0 -0.00012931817449 0.00053226206632 0.0040242556697 0.013250471274 0.048451592355 0.4464230148 8.8041195813 172.00654129 
723.18685248 1280.0275616 1475.7227235 1602.4004378 1749.0650028 1894.7109886 1894.7109888 1749.0650029 1602.4004377 
1475.7227232 1280.0275615 723.1868524 172.00654123 8.8041195785 0.44642301472 0.048451592362 0.013250471277 0.0040242556703 
0.00053226206623 -0.00012931817471 0 0 -0.00065329001325 -0.0013044860705 0.003888500452 0.027314284161 0.37165824292 
8.8736582058 209.35222278 822.58796721 1468.0089111 1746.398167 1915.9164593 2087.0178079 2302.2784925 2467.9471088 
2467.947109 2302.2784926 2087.0178078 1915.9164592 1746.3981667 1468.0089111 822.58796715 209.35222272 8.8736582028 
0.37165824284 0.027314284167 0.0038885004558 -0.0013044860715 -0.00065329001398 0 0 -0.0027275432302 -0.010887215201 
-0.014049338555 0.14849717793 6.5247145598 171.48445175 825.33505229 1515.8719816 1876.1805666 2026.0119278 2253.4323507 
2552.6046585 2826.4560857 3037.9998785 3037.9998784 2826.4560856 2552.6046586 2253.4323508 2026.0119276 1876.1805664 
1515.8719816 825.33505223 171.48445169 6.5247145572 0.14849717786 -0.01404933856 -0.010887215202 -0.0027275432302 0 
0 -0.0095383588732 -0.044635997784 -0.058294574108 3.12715921 109.49173137 726.36201872 1490.7995197 1894.462944 
2055.8890311 2316.0075818 2674.8735774 3065.965398 3356.8300995 3669.6722916 3669.6722911 3356.8300992 3065.9653978 
2674.8735775 2316.007582 2055.8890309 1894.4629437 1490.7995197 726.36201865 109.49173133 3.1271592084 -0.058294574173 
-0.044635997791 -0.0095383588689 0 0 -0.028550594327 -0.12858622934 0.61613476489 52.720085178 550.61529913 
1303.6067064 1796.4128313 2064.3886185 2307.167787 2704.2399471 3188.1718859 3594.967085 4008.1674152 4540.8120079 
4540.8120079 4008.1674151 3594.9670848 3188.1718858 2704.2399471 2307.1677871 2064.3886183 1796.412831 1303.6067064 
550.61529907 52.720085159 0.61613476425 -0.1285862294 -0.028550594329 0 0 -0.074892549094 -0.17064172145 
15.117032219 312.08667463 1034.6619845 1559.0804936 1967.0709893 2233.8059055 2604.7357632 3147.6437467 3681.1184045 
4207.2738262 4726.4550428 5915.8903398 5915.8903393 4726.4550428 4207.2738263 3681.1184043 3147.6437467 2604.7357632 
2233.8059054 1967.070989 1559.0804933 1034.6619845 312.0866746 15.117032212 -0.17064172162 -0.074892549114 0 
0 -0.11086244717 1.747755323 117.56012715 634.16021048 1314.3934019 1675.289164 2059.9161675 2465.2709852 
2987.0025502 3516.1381536 4171.8361973 4829.4870039 5830.7463052 8045.218422 8045.2184216 5830.7463047 4829.4870042 
4171.8361977 3516.1381537 2987.00255 2465.2709852 2059.9161674 1675.2891638 1314.3934018 634.16021044 117.56012714 
1.7477553225 -0.11086244724 0 0 -0.07364439431 16.683770707 293.74965024 859.9258432 1363.7039398 
1754.632618 2153.1720359 2637.7364199 3161.355063 3827.0309415 4576.5947711 5729.4174645 7019.9849042 10894.664053 
10894.664053 7019.9849038 5729.417464 4576.5947715 3827.0309417 3161.355063 2637.7364198 2153.1720358 1754.6326179 
1363.7039397 859.9258431 293.74965027 16.683770714 -0.073644394415 0 0 0.08807575664 63.482085729 
381.65173861 860.63115411 1316.0613595 1769.3391513 2177.1853927 2683.7690728 3371.8328105 4323.6467483 5661.5524184 
7887.2343775 10808.805642 13119.905903 13119.905904 10808.805642 7887.2343781 5661.5524185 4323.6467487 3371.8328107 
2683.7690726 2177.1853924 1769.3391512 1316.0613593 860.631154 381.65173862 63.482085719 0.088075756359 0 
0 0.095945558771 72.827694615 376.43912283 790.04516502 1199.5727464 1575.8402265 1997.4440723 2631.2415567 
3305.3150272 4300.5573399 5673.0873741 7882.2569707 10821.698272 13063.54571 13063.545711 10821.698272 7882.2569708 
5673.0873741 4300.5573401 3305.3150276 2631.241557 1997.4440722 1575.8402262 1199.5727462 790.04516506 376.43912285 
72.827694591 0.095945558613 0 0 0.034531134244 25.310361705 279.25744319 677.57967252 1035.0834446 
1346.0663951 1777.8483812 2342.1781256 3120.6990177 3756.2849107 4681.2709403 5908.0405888 7534.2235617 11285.04711 
11285.04711 7534.2235616 5908.0405889 4681.27094 3756.2849109 3120.6990181 2342.1781258 1777.8483811 1346.0663948 
1035.0834446 677.57967259 279.25744316 25.310361685 0.034531134089 0 0 -0.0011471126809 0.091609475329 
5.4625648357 47.344088943 149.77871107 303.75895628 508.95939404 779.63030702 1144.1674593 1637.5951738 2402.4866409 
3442.0987151 4891.1027992 7725.5115902 7725.51159 4891.1027992 3442.0987151 2402.4866409 1637.5951737 1144.1674593 
779.63030698 508.95939401 303.75895627 149.77871107 47.344088936 5.4625648328 0.091609475186 -0.0011471126774 0 
0 -0.00011497389371 -0.00089205353104 0.021114618078 0.42768457551 4.1533177141 22.909329072 65.014280203 138.40822864 
243.1797857 419.43307449 742.74603268 1287.5928631 2132.7501028 3394.8412883 3394.8412882 2132.7501028 1287.5928631 
742.74603263 419.43307446 243.17978568 138.40822864 65.014280206 22.909329072 4.153317713 0.42768457536 0.021114618103 
-0.00089205353066 -0.000114973895 0 0 -1.5155667517e-05 0.00029861904232 0.00071130531642 0.0012678381538 0.023123231808 
0.30784565163 1.9378243925 7.2993626307 19.969425105 47.807909983 110.2597297 243.95826782 498.96720844 916.70335687 
916.70335683 498.9672084 243.9582678 110.2597297 47.807909985 19.969425104 7.2993626322 1.9378243927 0.30784565162 
0.023123231811 0.0012678381547 0.00071130531853 0.00029861904296 -1.5155667627e-05 0 0 -7.707296814e-07 8.3552584157e-06 
-3.7458989877e-06 8.6443625528e-05 0.00027392061534 0.0015796445961 0.013012450041 0.086042233776 0.41900559717 1.678731245 5.617980354 
15.983777362 38.166913036 70.221547004 70.221547003 38.166913033 15.98377736 5.6179803539 1.6787312452 0.41900559719 
0.086042233776 0.013012450041 0.0015796445961 0.00027392061551 8.6443625681e-05 -3.7458989557e-06 8.3552584427e-06 -7.7072966631e-07 0 
0 -7.5376290288e-08 -4.7534347654e-07 7.0317798081e-07 1.4600337137e-05 1.6224983705e-05 5.2705789727e-05 0.00011050496026 0.00015566902677 