# vtk DataFile Version 5.1
vtk output
ASCII
DATASET UNSTRUCTURED_GRID
POINTS 961 double
0 1 0 1 1 0 1 0 0 
0 0 0 0 0.96666666667 0 0 0.93333333333 0 
0 0.9 0 0 0.86666666667 0 0 0.83333333333 0 
0 0.8 0 0 0.76666666667 0 0 0.73333333333 0 
0 0.7 0 0 0.66666666667 0 0 0.63333333333 0 
0 0.6 0 0 0.56666666667 0 0 0.53333333334 0 
0 0.5 0 0 0.46666666667 0 0 0.43333333334 0 
0 0.4 0 0 0.36666666667 0 0 0.33333333333 0 
0 0.3 0 0 0.26666666667 0 0 0.23333333333 0 
0 0.2 0 0 0.16666666667 0 0 0.13333333333 0 
0 0.1 0 0 0.066666666667 0 0 0.033333333333 0 
0.033333333333 0 0 0.066666666667 0 0 0.1 0 0 
0.13333333333 0 0 0.16666666667 0 0 0.2 0 0 
0.23333333333 0 0 0.26666666667 0 0 0.3 0 0 
0.33333333333 0 0 0.36666666667 0 0 0.4 0 0 
0.43333333333 0 0 0.46666666667 0 0 0.5 0 0 
0.53333333333 0 0 0.56666666667 0 0 0.6 0 0 
0.63333333333 0 0 0.66666666667 0 0 0.7 0 0 
0.73333333333 0 0 0.76666666667 0 0 0.8 0 0 
0.83333333333 0 0 0.86666666667 0 0 0.9 0 0 
0.93333333333 0 0 0.96666666667 0 0 1 0.033333333333 0 
1 0.066666666667 0 1 0.1 0 1 0.13333333333 0 
1 0.16666666667 0 1 0.2 0 1 0.23333333333 0 
1 0.26666666667 0 1 0.3 0 1 0.33333333333 0 
1 0.36666666667 0 1 0.4 0 1 0.43333333333 0 
1 0.46666666667 0 1 0.5 0 1 0.53333333333 0 
1 0.56666666667 0 1 0.6 0 1 0.63333333333 0 
1 0.66666666667 0 1 0.7 0 1 0.73333333333 0 
1 0.76666666667 0 1 0.8 0 1 0.83333333333 0 
1 0.86666666667 0 1 0.9 0 1 0.93333333333 0 
1 0.96666666667 0 0.96666666667 1 0 0.93333333333 1 0 
0.9 1 0 0.86666666667 1 0 0.83333333333 1 0 
0.8 1 0 0.76666666667 1 0 0.73333333333 1 0 
0.7 1 0 0.66666666667 1 0 0.63333333333 1 0 
0.6 1 0 0.56666666667 1 0 0.53333333334 1 0 
0.5 1 0 0.46666666667 1 0 0.43333333334 1 0 
0.4 1 0 0.36666666667 1 0 0.33333333333 1 0 
0.3 1 0 0.26666666667 1 0 0.23333333333 1 0 
0.2 1 0 0.16666666667 1 0 0.13333333333 1 0 
0.1 1 0 0.066666666667 1 0 0.033333333333 1 0 
0.033333333333 0.033333333333 0 0.033333333333 0.066666666667 0 0.033333333333 0.1 0 
0.033333333333 0.13333333333 0 0.033333333333 0.16666666667 0 0.033333333333 0.2 0 
0.033333333333 0.23333333333 0 0.033333333333 0.26666666667 0 0.033333333333 0.3 0 
0.033333333333 0.33333333333 0 0.033333333333 0.36666666667 0 0.033333333333 0.4 0 
0.033333333333 0.43333333334 0 0.033333333333 0.46666666667 0 0.033333333333 0.5 0 
0.033333333333 0.53333333334 0 0.033333333333 0.56666666667 0 0.033333333333 0.6 0 
0.033333333333 0.63333333333 0 0.033333333333 0.66666666667 0 0.033333333333 0.7 0 
0.033333333333 0.73333333333 0 0.033333333333 0.76666666667 0 0.033333333333 0.8 0 
0.033333333333 0.83333333333 0 0.033333333333 0.86666666667 0 0.033333333333 0.9 0 
0.033333333333 0.93333333333 0 0.033333333333 0.96666666667 0 0.066666666667 0.033333333333 0 
0.066666666667 0.066666666667 0 0.066666666667 0.1 0 0.066666666667 0.13333333333 0 
0.066666666667 0.16666666667 0 0.066666666667 0.2 0 0.066666666667 0.23333333333 0 
0.066666666667 0.26666666667 0 0.066666666667 0.3 0 0.066666666667 0.33333333333 0 
0.066666666667 0.36666666667 0 0.066666666667 0.4 0 0.066666666667 0.43333333333 0 
0.066666666667 0.46666666667 0 0.066666666667 0.5 0 0.066666666667 0.53333333333 0 
0.066666666667 0.56666666667 0 0.066666666667 0.6 0 0.066666666667 0.63333333333 0 
0.066666666667 0.66666666667 0 0.066666666667 0.7 0 0.066666666667 0.73333333333 0 
0.066666666667 0.76666666667 0 0.066666666667 0.8 0 0.066666666667 0.83333333333 0 
0.066666666667 0.86666666667 0 0.066666666667 0.9 0 0.066666666667 0.93333333333 0 
0.066666666667 0.96666666667 0 0.1 0.033333333333 0 0.1 0.066666666667 0 
0.1 0.1 0 0.1 0.13333333333 0 0.1 0.16666666667 0 
0.1 0.2 0 0.1 0.23333333333 0 0.1 0.26666666667 0 
0.1 0.3 0 0.1 0.33333333333 0 0.1 0.36666666667 0 
0.1 0.4 0 0.1 0.43333333333 0 0.1 0.46666666667 0 
0.1 0.5 0 0.1 0.53333333333 0 0.1 0.56666666667 0 
0.1 0.6 0 0.1 0.63333333333 0 0.1 0.66666666667 0 
0.1 0.7 0 0.1 0.73333333333 0 0.1 0.76666666667 0 
0.1 0.8 0 0.1 0.83333333333 0 0.1 0.86666666667 0 
0.1 0.9 0 0.1 0.93333333333 0 0.1 0.96666666667 0 
0.13333333333 0.033333333333 0 0.13333333333 0.066666666667 0 0.13333333333 0.1 0 
0.13333333333 0.13333333333 0 0.13333333333 0.16666666667 0 0.13333333333 0.2 0 
0.13333333333 0.23333333333 0 0.13333333333 0.26666666667 0 0.13333333333 0.3 0 
0.13333333333 0.33333333333 0 0.13333333333 0.36666666667 0 0.13333333333 0.4 0 
0.13333333333 0.43333333333 0 0.13333333333 0.46666666667 0 0.13333333333 0.5 0 
0.13333333333 0.53333333333 0 0.13333333333 0.56666666667 0 0.13333333333 0.6 0 
0.13333333333 0.63333333333 0 0.13333333333 0.66666666667 0 0.13333333333 0.7 0 
0.13333333333 0.73333333333 0 0.13333333333 0.76666666667 0 0.13333333333 0.8 0 
0.13333333333 0.83333333333 0 0.13333333333 0.86666666667 0 0.13333333333 0.9 0 
0.13333333333 0.93333333333 0 0.13333333333 0.96666666667 0 0.16666666667 0.033333333333 0 
0.16666666667 0.066666666667 0 0.16666666667 0.1 0 0.16666666667 0.13333333333 0 
0.16666666667 0.16666666667 0 0.16666666667 0.2 0 0.16666666667 0.23333333333 0 
0.16666666667 0.26666666667 0 0.16666666667 0.3 0 0.16666666667 0.33333333333 0 
0.16666666667 0.36666666667 0 0.16666666667 0.4 0 0.16666666667 0.43333333333 0 
0.16666666667 0.46666666667 0 0.16666666667 0.5 0 0.16666666667 0.53333333333 0 
0.16666666667 0.56666666667 0 0.16666666667 0.6 0 0.16666666667 0.63333333333 0 
0.16666666667 0.66666666667 0 0.16666666667 0.7 0 0.16666666667 0.73333333333 0 
0.16666666667 0.76666666667 0 0.16666666667 0.8 0 0.16666666667 0.83333333333 0 
0.16666666667 0.86666666667 0 0.16666666667 0.9 0 0.16666666667 0.93333333333 0 
0.16666666667 0.96666666667 0 0.2 0.033333333333 0 0.2 0.066666666667 0 
0.2 0.1 0 0.2 0.13333333333 0 0.2 0.16666666667 0 
0.2 0.2 0 0.2 0.23333333333 0 0.2 0.26666666667 0 
0.2 0.3 0 0.2 0.33333333333 0 0.2 0.36666666667 0 
0.2 0.4 0 0.2 0.43333333333 0 0.2 0.46666666667 0 
0.2 0.5 0 0.2 0.53333333333 0 0.2 0.56666666667 0 
0.2 0.6 0 0.2 0.63333333333 0 0.2 0.66666666667 0 
0.2 0.7 0 0.2 0.73333333333 0 0.2 0.76666666667 0 
0.2 0.8 0 0.2 0.83333333333 0 0.2 0.86666666667 0 
0.2 0.9 0 0.2 0.93333333333 0 0.2 0.96666666667 0 
0.23333333333 0.033333333333 0 0.23333333333 0.066666666667 0 0.23333333333 0.1 0 
0.23333333333 0.13333333333 0 0.23333333333 0.16666666667 0 0.23333333333 0.2 0 
0.23333333333 0.23333333333 0 0.23333333333 0.26666666667 0 0.23333333333 0.3 0 
0.23333333333 0.33333333333 0 0.23333333333 0.36666666667 0 0.23333333333 0.4 0 
0.23333333333 0.43333333333 0 0.23333333333 0.46666666667 0 0.23333333333 0.5 0 
0.23333333333 0.53333333333 0 0.23333333333 0.56666666667 0 0.23333333333 0.6 0 
0.23333333333 0.63333333333 0 0.23333333333 0.66666666667 0 0.23333333333 0.7 0 
0.23333333333 0.73333333333 0 0.23333333333 0.76666666667 0 0.23333333333 0.8 0 
0.23333333333 0.83333333333 0 0.23333333333 0.86666666667 0 0.23333333333 0.9 0 
0.23333333333 0.93333333333 0 0.23333333333 0.96666666667 0 0.26666666667 0.033333333333 0 
0.26666666667 0.066666666667 0 0.26666666667 0.1 0 0.26666666667 0.13333333333 0 
0.26666666667 0.16666666667 0 0.26666666667 0.2 0 0.26666666667 0.23333333333 0 
0.26666666667 0.26666666667 0 0.26666666667 0.3 0 0.26666666667 0.33333333333 0 
0.26666666667 0.36666666667 0 0.26666666667 0.4 0 0.26666666667 0.43333333333 0 
0.26666666667 0.46666666667 0 0.26666666667 0.5 0 0.26666666667 0.53333333333 0 
0.26666666667 0.56666666667 0 0.26666666667 0.6 0 0.26666666667 0.63333333333 0 
0.26666666667 0.66666666667 0 0.26666666667 0.7 0 0.26666666667 0.73333333333 0 
0.26666666667 0.76666666667 0 0.26666666667 0.8 0 0.26666666667 0.83333333333 0 
0.26666666667 0.86666666667 0 0.26666666667 0.9 0 0.26666666667 0.93333333333 0 
0.26666666667 0.96666666667 0 0.3 0.033333333333 0 0.3 0.066666666667 0 
0.3 0.1 0 0.3 0.13333333333 0 0.3 0.16666666667 0 
0.3 0.2 0 0.3 0.23333333333 0 0.3 0.26666666667 0 
0.3 0.3 0 0.3 0.33333333333 0 0.3 0.36666666667 0 
0.3 0.4 0 0.3 0.43333333333 0 0.3 0.46666666667 0 
0.3 0.5 0 0.3 0.53333333333 0 0.3 0.56666666667 0 
0.3 0.6 0 0.3 0.63333333333 0 0.3 0.66666666667 0 
0.3 0.7 0 0.3 0.73333333333 0 0.3 0.76666666667 0 
0.3 0.8 0 0.3 0.83333333333 0 0.3 0.86666666667 0 
0.3 0.9 0 0.3 0.93333333333 0 0.3 0.96666666667 0 
0.33333333333 0.033333333333 0 0.33333333333 0.066666666667 0 0.33333333333 0.1 0 
0.33333333333 0.13333333333 0 0.33333333333 0.16666666667 0 0.33333333333 0.2 0 
0.33333333333 0.23333333333 0 0.33333333333 0.26666666667 0 0.33333333333 0.3 0 
0.33333333333 0.33333333333 0 0.33333333333 0.36666666667 0 0.33333333333 0.4 0 
0.33333333333 0.43333333333 0 0.33333333333 0.46666666667 0 0.33333333333 0.5 0 
0.33333333333 0.53333333333 0 0.33333333333 0.56666666667 0 0.33333333333 0.6 0 
0.33333333333 0.63333333333 0 0.33333333333 0.66666666667 0 0.33333333333 0.7 0 
0.33333333333 0.73333333333 0 0.33333333333 0.76666666667 0 0.33333333333 0.8 0 
0.33333333333 0.83333333333 0 0.33333333333 0.86666666667 0 0.33333333333 0.9 0 
0.33333333333 0.93333333333 0 0.33333333333 0.96666666667 0 0.36666666667 0.033333333333 0 
0.36666666667 0.066666666667 0 0.36666666667 0.1 0 0.36666666667 0.13333333333 0 
0.36666666667 0.16666666667 0 0.36666666667 0.2 0 0.36666666667 0.23333333333 0 
0.36666666667 0.26666666667 0 0.36666666667 0.3 0 0.36666666667 0.33333333333 0 
0.36666666667 0.36666666667 0 0.36666666667 0.4 0 0.36666666667 0.43333333333 0 
0.36666666667 0.46666666667 0 0.36666666667 0.5 0 0.36666666667 0.53333333333 0 
0.36666666667 0.56666666667 0 0.36666666667 0.6 0 0.36666666667 0.63333333333 0 
0.36666666667 0.66666666667 0 0.36666666667 0.7 0 0.36666666667 0.73333333333 0 
0.36666666667 0.76666666667 0 0.36666666667 0.8 0 0.36666666667 0.83333333333 0 
0.36666666667 0.86666666667 0 0.36666666667 0.9 0 0.36666666667 0.93333333333 0 
0.36666666667 0.96666666667 0 0.4 0.033333333333 0 0.4 0.066666666667 0 
0.4 0.1 0 0.4 0.13333333333 0 0.4 0.16666666667 0 
0.4 0.2 0 0.4 0.23333333333 0 0.4 0.26666666667 0 
0.4 0.3 0 0.4 0.33333333333 0 0.4 0.36666666667 0 
[...]
CELL_DATA 900
FIELD FieldData 3
radiation%20flux%20density 1 900 double
0 0 0 0 0 0 0 0 0 
0 0 0 0 0 0 0 0 0 
0 0 0 0 0 0 0 0 0 
0 0 0 0 1.9881941721e-94 7.8017405627e-75 7.650454513e-56 4.2937146456e-41 5.9973976801e-27 
4.8187409948e-17 9.5532248745e-08 0.010990703459 307.72787999 1290.3524975 2786.6228087 4335.2201863 5552.5327674 6224.2942914 
6224.2942913 5552.5327673 4335.2201861 2786.6228086 1290.3524974 307.72787996 0.010990703457 9.5532248716e-08 4.8187409931e-17 
5.9973976777e-27 4.2937146437e-41 7.6504545096e-56 7.8017405592e-75 1.9881941712e-94 0 0 7.7828285325e-75 7.9875344326e-56 
4.6843701816e-41 6.865192154e-27 5.7584340238e-17 1.2020978525e-07 0.014435305472 427.7374193 1851.3128268 4147.2540441 6714.2898291 
8983.0225321 10615.170144 11472.255494 11472.255494 10615.170144 8983.0225319 6714.2898289 4147.2540439 1851.3128267 
427.73741925 0.014435305469 1.2020978521e-07 5.7584340218e-17 6.8651921512e-27 4.6843701795e-41 7.987534429e-56 7.782828529e-75 0 
0 7.6125468982e-56 4.6730149014e-41 7.1676733223e-27 6.2823542923e-17 1.3760356049e-07 0.017250300013 538.22774782 2404.1524358 
5518.594187 9105.4156408 12408.823563 14995.342723 16722.803016 17591.246283 17591.246283 16722.803016 14995.342723 
12408.823563 9105.4156406 5518.5941868 2404.1524357 538.22774777 0.01725030001 1.3760356045e-07 6.2823542901e-17 7.1676733194e-27 
4.6730148993e-41 7.6125468947e-56 0 0 4.2625311375e-41 6.8311754744e-27 6.2671253734e-17 1.4366638944e-07 0.018819782874 
616.10584616 2848.5186207 6713.3018448 11283.954839 15585.650126 19050.152191 21524.782421 23076.311267 23827.696043 
23827.696043 23076.311267 21524.782421 19050.15219 15585.650125 11283.954839 6713.3018446 2848.5186205 616.1058461 
0.01881978287 1.436663894e-07 6.2671253713e-17 6.8311754716e-27 4.2625311356e-41 0 0 5.9379988231e-27 5.7166128529e-17 
1.3692174182e-07 0.018774162185 643.25123877 3093.4480253 7522.771241 12932.174219 18129.955082 22367.510022 25438.772732 
27457.956215 28647.397029 29200.886554 29200.886554 28647.397029 27457.956214 25438.772731 22367.510022 18129.955081 
12932.174218 7522.7712407 3093.4480252 643.25123871 0.018774162181 1.3692174178e-07 5.7166128509e-17 5.9379988207e-27 0 
0 4.7604373626e-17 1.190192149e-07 0.017125017916 613.05306869 3085.6745156 7797.1822307 13804.126903 19750.318185 
24668.945303 28234.812591 30564.010036 31956.035062 32707.880337 33037.646797 33037.646797 32707.880337 31956.035062 
30564.010036 28234.812591 24668.945303 19750.318185 13804.126902 7797.1822305 3085.6745155 613.05306864 0.017125017912 
1.1901921486e-07 4.7604373609e-17 0 0 9.4112487539e-08 0.014260647444 532.89707765 2827.0937374 7484.8901466 
13769.886703 20275.779184 25813.154535 29859.220052 32457.526289 33942.896786 34696.913648 35032.387397 35156.014149 
35156.014149 35032.387397 34696.913648 33942.896786 32457.526289 29859.220052 25813.154535 20275.779184 13769.886703 
7484.8901465 2827.0937373 532.89707761 0.014260647441 9.4112487513e-08 0 0 0.01080451061 421.38055626 
2374.0824552 6645.9695 12836.390289 19656.180166 25751.500935 30338.288827 33288.748013 34903.51889 35618.587729 
35830.524968 35827.158552 35787.888891 35787.888891 35827.158552 35830.524968 35618.587729 34903.51889 33288.748013 
30338.288827 25751.500935 19656.180166 12836.390289 6645.9694998 2374.0824551 421.38055622 0.010804510608 0 
0 301.62530949 1818.9794499 5436.017927 11145.619894 17958.302025 24492.314056 29694.850289 33166.307192 
35072.181282 35847.974782 35957.579405 35767.907042 35526.180742 35376.447244 35376.447244 35526.180742 35767.907042 
35957.579405 35847.974782 35072.181282 33166.307192 29694.850289 24492.314056 17958.302025 11145.619894 5436.0179269 
1818.9794498 301.62530946 0 0 1261.4826171 4065.1039746 8950.5921565 15366.46123 22100.213327 
27916.934523 32087.673891 34524.907845 35572.436824 35722.658786 35417.39215 34976.718578 34599.714683 34394.289544 
34394.289544 34599.714683 34976.718578 35417.39215 35722.658786 35572.436824 34524.907844 32087.673891 27916.934523 
22100.213327 15366.46123 8950.5921564 4065.1039745 1261.4826171 0 0 2718.4532055 6569.304939 
12179.148896 18729.92564 24991.571645 29944.035452 33154.354641 34753.085682 35182.672363 34934.821967 34407.13891 
33863.689673 33455.437586 33252.211661 33252.211661 33455.437586 33863.689673 34407.13891 34934.821967 35182.672363 
34753.085682 33154.354641 29944.035452 24991.571644 18729.92564 12179.148896 6569.3049388 2718.4532054 0 
0 4223.3138349 8778.7680879 14667.842122 20988.185794 26597.311867 30712.981131 33138.763927 34147.695941 
34214.616782 33799.778812 33243.218529 32752.291699 32428.014883 32298.247788 32298.247788 32428.014883 32752.291699 
33243.218529 33799.778812 34214.616782 34147.695941 33138.763927 30712.981131 26597.311867 20988.185794 14667.842122 
8778.7680878 4223.3138348 0 0 5405.7732367 10325.719792 16151.025949 22010.176253 26922.014063 
30328.923731 32208.554688 32903.304122 32877.453872 32539.161218 32168.862326 31916.272624 31829.022467 31880.278689 
31880.278689 31829.022467 31916.272624 32168.862326 32539.161218 32877.453872 32903.304122 32208.554688 30328.923731 
26922.014063 22010.176253 16151.025949 10325.719792 5405.7732366 0 0 6013.5181603 10926.006938 
16386.159333 21638.071684 25897.857082 28796.341945 30412.364841 31100.462746 31281.625661 31305.979806 31396.579674 
31647.676735 32043.185258 32474.082717 32474.082717 32043.185258 31647.676735 31396.579674 31305.979806 31281.625661 
31100.462745 30412.364841 28796.341945 25897.857082 21638.071684 16386.159333 10926.006938 6013.5181602 0 
0 5759.7958601 10214.372811 15007.704524 19554.118404 23269.648278 25916.729219 27607.340984 28656.877054 
29424.383005 30204.221062 31176.477196 32386.917884 33740.423221 34991.422023 34991.422023 33740.423221 32386.917884 
31176.477196 30204.221062 29424.383005 28656.877053 27607.340984 25916.729219 23269.648278 19554.118404 15007.704524 
10214.37281 5759.79586 0 0 4303.0204895 7672.1541442 11371.85969 15035.482193 18285.251669 
20966.208881 23154.990659 25077.369568 27011.271373 29214.084248 31864.717452 34999.910522 38442.484739 41748.335384 
41748.335384 38442.484738 34999.910522 31864.717452 29214.084248 27011.271373 25077.369568 23154.990658 20966.208881 
18285.251669 15035.482193 11371.85969 7672.154144 4303.0204894 0 0 2150.4451267 5513.9055574 
11520.934567 20736.236791 33251.408557 48776.009608 66935.653786 87669.453667 111567.00799 139972.49978 174660.65109 
216914.98717 266324.57007 322956.35658 322956.35658 266324.57007 216914.98717 174660.65109 139972.49978 111567.00799 
87669.453666 66935.653785 48776.009608 33251.408556 20736.23679 11520.934566 5513.9055572 2150.4451266 0 
0 124.24246926 466.59595931 1336.7673623 3149.0762774 6394.5683883 11583.3001 19239.148594 30006.849851 
44890.535657 65563.947445 94550.070961 134837.76692 188372.31372 254866.2428 254866.24279 188372.31372 134837.76692 
94550.070959 65563.947444 44890.535656 30006.849851 19239.148594 11583.3001 6394.5683882 3149.0762774 1336.7673622 
466.59595928 124.24246925 0 0 4.0321306395 24.812649892 102.60885308 324.79218432 846.43153255 
1905.1998766 3837.947488 7124.1235625 12495.536687 21146.435115 35016.016339 56915.497645 89829.012557 134656.7593 
134656.7593 89829.012555 56915.497644 35016.016338 21146.435115 12495.536687 7124.1235624 3837.9474879 1905.1998766 
846.43153253 324.7921843 102.60885308 24.812649891 4.0321306392 0 0 0.055628471883 0.75167361341 
5.0358237795 22.730536646 78.683258292 224.75895872 556.50929474 1239.8232455 2562.3177917 5036.0094164 9576.4918977 
17715.355155 31518.011596 52239.823519 52239.823518 31518.011595 17715.355155 9576.4918975 5036.0094162 2562.3177916 
1239.8232454 556.50929473 224.75895871 78.683258289 22.730536645 5.0358237793 0.75167361337 0.055628471879 0 
0 1.8799004738e-07 0.009814402623 0.14260882609 1.0325688901 5.0523927922 19.011612344 59.268680437 161.06862341 
396.61421342 912.17497889 2001.7581003 4226.4744114 8489.5449319 15577.673338 15577.673338 8489.5449317 4226.4744113 
2001.7581002 912.17497886 396.61421341 161.0686234 59.268680435 19.011612343 5.0523927921 1.0325688901 0.14260882608 
0.0098144026223 1.8799004734e-07 0 0 1.1233663938e-13 3.3846341141e-08 0.0017621597353 0.027404607847 0.21340803852 
1.127194849 4.5996306671 15.643957672 46.720313923 127.34029941 325.42558685 789.29782086 1798.2459377 3666.8627169 
3666.8627168 1798.2459376 789.29782083 325.42558684 127.34029941 46.720313922 15.643957671 4.599630667 1.127194849 
0.21340803851 0.027404607846 0.0017621597352 3.3846341134e-08 1.1233663936e-13 0 0 4.6303508825e-24 2.073119405e-14 
6.1842130561e-09 0.00032105588507 0.0053263397908 0.044478076698 0.25333985308 1.1220684658 4.1737809622 13.73641586 41.439617257 
116.62143709 303.63455893 692.27445621 692.27445618 303.63455891 116.62143709 41.439617255 13.73641586 4.1737809621 
1.1220684657 0.25333985307 0.044478076696 0.0053263397906 0.00032105588505 6.1842130549e-09 2.0731194045e-14 4.6303508807e-24 0 
0 4.4579448295e-39 8.6673201288e-25 3.880538211e-15 1.1456897045e-09 5.930135393e-05 0.0010475715573 0.0093829676289 0.05773605697 
0.27848520344 1.1372154402 4.1289405755 13.675268843 41.125358498 105.7349924 105.7349924 41.125358496 13.675268842 
4.1289405753 1.1372154401 0.27848520343 0.057736056968 0.0093829676284 0.0010475715573 5.9301353926e-05 1.1456897043e-09 3.8805382101e-15 
8.6673201254e-25 4.4579448275e-39 0 0 1.1230104495e-53 2.3486705565e-39 1.6451577826e-25 7.3654051345e-16 2.1529249097e-10 
1.1111002235e-05 0.00020934249225 0.0020161463839 0.013456331164 0.071008312045 0.31895755875 1.267987776 4.4690909771 13.105116631 
13.105116631 4.4690909769 1.267987776 0.31895755873 0.071008312041 0.013456331163 0.0020161463838 0.00020934249223 1.1111002235e-05 
2.1529249093e-10 7.3654051327e-16 1.6451577819e-25 2.3486705555e-39 1.123010449e-53 0 0 2.0053691223e-68 1.2307740267e-53 
1.9939722835e-39 3.1920752783e-26 1.4287891944e-16 4.1262734159e-11 2.1218875935e-06 4.2764677933e-05 0.00044492195792 0.0032379139163 0.018742987645 
0.09195038561 0.38745424478 1.3154525883 1.3154525882 0.38745424476 0.091950385605 0.018742987644 0.0032379139161 0.00044492195789 
4.276467793e-05 2.1218875934e-06 4.1262734151e-11 1.428789194e-16 3.192075277e-26 1.9939722827e-39 1.2307740261e-53 2.0053691214e-68 0 
0 2.0498327691e-87 2.1033630324e-68 1.2332419952e-53 1.828235138e-39 6.3980926024e-27 2.8609522808e-17 8.1205365309e-12 4.1540033397e-07 
9.0037899728e-06 0.00010178807725 0.00081035160801 0.005110291618 0.026468829761 0.10616149561 0.1061614956 0.026468829759 0.0051102916176 
0.00081035160796 0.00010178807724 9.0037899722e-06 4.1540033394e-07 8.1205365292e-12 2.86095228e-17 6.3980925998e-27 1.8282351372e-39 1.2332419947e-53 
2.1033630314e-68 2.0498327682e-87 0 0 5.2355256279e-107 2.0539438376e-87 2.0136094225e-68 1.12979163e-53 1.5820344544e-39 
1.3514242129e-27 6.019007316e-18 1.6585777362e-12 8.4058948205e-08 1.9720851067e-06 2.4315755975e-05 0.00021031446346 0.0013944427058 0.0067928128688 
0.0067928128683 0.0013944427057 0.00021031446345 2.4315755973e-05 1.9720851066e-06 8.4058948199e-08 1.6585777358e-12 6.0190073144e-18 1.3514242124e-27 
1.5820344538e-39 1.1297916296e-53 2.0136094215e-68 2.0539438367e-87 5.2355256256e-107 0 0 0 0 
0 0 0 0 0 0 0 0 0 
0 0 0 0 0 0 0 0 0 
0 0 0 0 0 0 0 0 0 

dose 1 900 double
0 0 0 0 0 0 0 0 0 
0 0 0 0 0 0 0 0 0 
0 0 0 0 0 0 0 0 0 
0 0 0 0 1.6827630969e-96 6.6032187875e-77 6.4751736574e-58 3.6341040808e-43 5.0760633117e-29 
4.0784746452e-19 8.0856359553e-10 9.3023721509e-05 2.6046366327 13.517832608 36.242334314 68.401560854 102.70720683 130.15284463 
130.15284463 102.70720683 68.401560851 36.242334312 13.517832607 2.6046366324 9.3023721492e-05 8.0856359529e-10 4.0784746438e-19 
5.0760633096e-29 3.6341040792e-43 6.4751736545e-58 6.6032187846e-77 1.6827630962e-96 0 0 6.587212068e-77 6.7604705652e-58 
3.9647461925e-43 5.8105451529e-29 4.8738098162e-19 1.0174287474e-09 0.00012217835492 3.6204091387 19.540595051 54.803602597 108.6595663 
172.60104014 234.30400676 282.29943387 282.29943387 234.30400675 172.60104014 108.65956629 54.803602595 19.540595049 
3.6204091383 0.0001221783549 1.0174287471e-09 4.8738098145e-19 5.8105451506e-29 3.9647461908e-43 6.7604705621e-58 6.587212065e-77 0 
0 6.4430894997e-58 3.9551353372e-43 6.0665584512e-29 5.3172442182e-19 1.1646457724e-09 0.00014600408116 4.555610299 25.527552847 
74.104947506 151.84004363 249.70841676 353.18409572 447.25255071 521.67138008 521.67138008 447.2525507 353.18409571 
249.70841675 151.84004362 74.104947503 25.527552845 4.5556102986 0.00014600408113 1.1646457721e-09 5.3172442163e-19 6.0665584488e-29 
3.9551353355e-43 6.4430894967e-58 0 0 3.6077110567e-43 5.7817541958e-29 5.3043548017e-19 1.2159602012e-09 0.000159287969 
5.2147783769 30.371168466 91.244491806 192.74817482 326.10325233 474.69154399 621.08088599 750.69169635 859.30248863 
859.30248862 750.69169634 621.08088598 474.69154397 326.10325232 192.74817481 91.244491801 30.371168464 5.2147783764 
0.00015928796897 1.2159602009e-09 5.3043547999e-19 5.7817541935e-29 3.6077110551e-43 0 0 5.0257894471e-29 4.8384133122e-19 
1.1588750116e-09 0.00015890184171 5.4445397315 33.052261419 103.01730815 224.65650213 390.75014371 583.18452119 781.88979558 
970.38508502 1137.5162359 1291.6198167 1291.6198167 1137.5162359 970.385085 781.88979557 583.18452118 390.7501437 
224.65650212 103.01730814 33.052261417 5.444539731 0.00015890184168 1.1588750113e-09 4.8384133105e-19 5.0257894451e-29 0 
0 4.0291277544e-19 1.0073520261e-09 0.00014494371062 5.1889393572 32.968646283 107.04449423 241.88752446 433.64409325 
664.06203057 910.63687892 1154.3351123 1382.7495024 1590.3205652 1807.9707429 1807.9707428 1590.3205652 1382.7495024 
1154.3351123 910.63687891 664.06203055 433.64409324 241.88752445 107.04449422 32.968646281 5.1889393567 0.00014494371059 
1.0073520259e-09 4.029127753e-19 0 0 7.965470541e-10 0.00012070007344 4.510490968 30.141153214 102.48868789 
241.26120856 447.95090325 706.39697383 992.66681738 1284.8453168 1568.2443339 1836.1918749 2090.5689766 2401.3801601 
2401.3801601 2090.5689765 1836.1918748 1568.2443339 1284.8453168 992.66681737 706.39697382 447.95090324 241.26120855 
102.48868789 30.141153212 4.5104909676 0.00012070007341 7.9654705388e-10 0 0 9.1447811162e-05 3.5666040174 
25.205928365 90.311309539 222.91877773 431.40243529 704.54574323 1019.076588 1350.6070519 1681.3680291 2002.5244111 
2314.2482586 2628.0916291 3080.6456741 3080.645674 2628.0916291 2314.2482586 2002.5244111 1681.368029 1350.6070519 
1019.076588 704.54574321 431.40243528 222.91877772 90.311309536 25.205928363 3.5666040171 9.1447811144e-05 0 
0 2.5529838825 19.196620479 72.973076338 190.27826643 386.73776566 658.86716521 987.1863849 1346.4268365 
1715.5274483 2082.5119947 2445.4100865 2812.671607 3208.7610519 3883.3252174 3883.3252174 3208.7610518 2812.671607 
2445.4100865 2082.5119947 1715.5274483 1346.4268364 987.18638488 658.86716521 386.73776565 190.27826642 72.973076336 
19.196620478 2.5529838823 0 0 13.212784116 53.694033623 149.13832065 321.12962179 575.63477772 
900.57036609 1272.8024043 1668.9511087 2073.2384068 2480.6996762 2897.6922469 3343.5743996 3861.4365121 4894.6015338 
4894.6015337 3861.4365121 3343.5743996 2897.6922469 2480.6996762 2073.2384068 1668.9511087 1272.8024043 900.57036608 
575.63477772 321.12962178 149.13832065 53.694033621 13.212784115 0 0 35.333894924 106.20124745 
244.69774803 466.16297133 768.84964989 1135.8631381 1544.2290593 1974.7983504 2418.5823365 2879.2727099 3374.3544588 
3939.7672803 4649.5467174 6289.921043 6289.9210429 4649.5467173 3939.7672802 3374.3544587 2879.2727099 2418.5823365 
1974.7983504 1544.2290593 1135.863138 768.84964988 466.16297132 244.69774802 106.20124745 35.333894922 0 
0 66.544106158 168.34909805 345.1023431 607.07046709 947.66891435 1348.7957308 1790.435987 2259.5734726 
2755.7673593 3294.1237515 3909.0600549 4666.6646679 5703.9028347 8464.6181514 8464.6181511 5703.9028347 4666.6646678 
3909.0600548 3294.1237515 2755.7673593 2259.5734725 1790.4359869 1348.7957308 947.66891434 607.07046709 345.1023431 
168.34909804 66.544106156 0 0 99.755924853 227.80719188 434.2450373 726.35158008 1096.1127887 
1527.6407033 2006.5712919 2528.2097107 3103.2556334 3763.3019941 4571.9471568 5658.422558 7317.9401896 11340.102928 
11340.102928 7317.9401895 5658.4225579 4571.9471568 3763.3019941 3103.2556334 2528.2097107 2006.5712919 1527.6407033 
1096.1127887 726.35158007 434.2450373 227.80719188 99.75592485 0 0 125.90427557 271.78512207 
498.24478409 813.4469476 1213.8552813 1692.9905743 2251.1274321 2904.7208269 3696.7297599 4713.899661 6128.8763817 
8330.6010828 11250.427909 15502.967843 15502.967843 11250.427909 8330.6010826 6128.8763817 4713.8996609 3696.7297599 
2904.7208268 2251.1274321 1692.9905743 1213.8552813 813.44694759 498.24478408 271.78512206 125.90427557 0 
0 123.30833647 262.64548855 476.27988395 772.63136676 1151.1421177 1609.9668264 2153.9737879 2802.9058708 
3601.289903 4635.7687208 6077.223563 8310.6863719 11261.414601 15549.178879 15549.178879 11261.414601 8310.6863718 
6077.2235629 4635.7687207 3601.2899029 2802.9058707 2153.9737879 1609.9668263 1151.1421176 772.63136675 476.27988394 
262.64548854 123.30833647 0 0 86.509741032 189.5333021 350.9624418 579.32631009 875.97277944 
1239.3405655 1669.4311204 2172.3635495 2764.8778439 3480.0237748 4378.01733 5577.6284669 7355.338878 11533.142944 
11533.142944 7355.3388779 5577.6284668 4378.0173299 3480.0237748 2764.8778438 2172.3635495 1669.4311203 1239.3405655 
875.97277943 579.32631008 350.96244179 189.53330209 86.509741028 0 0 5.7618429616 17.284930073 
42.318495429 89.120346423 166.92570007 285.41508287 455.28530236 690.64859952 1013.5866621 1460.5964672 2090.1549618 
2992.0585359 4314.5915069 7289.1605751 7289.1605748 4314.5915068 2992.0585358 2090.1549617 1460.5964672 1013.5866621 
690.6485995 455.28530235 285.41508286 166.92570006 89.120346421 42.318495427 17.284930073 5.7618429613 0 
0 0.27549724143 1.1897548913 3.9144945862 10.562689192 24.499738897 50.543333978 95.3029226 168.14103394 
283.42838331 464.75083131 751.22831337 1205.0021718 1920.8163966 3339.3241547 3339.3241546 1920.8163965 1205.0021718 
751.22831335 464.7508313 283.4283833 168.14103394 95.302922597 50.543333977 24.499738896 10.562689192 3.914494586 
1.1897548912 0.27549724141 0 0 0.0077097351386 0.053905986403 0.25321061984 0.90812224786 2.6728580135 
6.7710631044 15.295276599 31.713777788 61.882175438 116.06496533 212.54184359 382.84012701 677.24168699 1243.727933 
1243.727933 677.24168697 382.840127 212.54184359 116.06496532 61.882175437 31.713777787 15.295276599 6.7710631042 
2.6728580134 0.90812224783 0.25321061983 0.0539059864 0.007709735138 0 0 9.4168351184e-05 0.0014269656999 
0.010762297811 0.054632822542 0.21207733375 0.67693744777 1.8657543166 4.6082544823 10.514406231 22.724671929 47.395928652 
96.256904285 189.74730722 373.81342685 373.81342683 189.74730721 96.256904282 47.395928651 22.724671929 10.514406231 
4.6082544822 1.8657543165 0.67693744775 0.21207733374 0.05463282254 0.01076229781 0.0014269656999 9.4168351177e-05 0 
0 3.1822290712e-10 1.6613912365e-05 0.00026901799161 0.0021758623078 0.011875003416 0.049685524579 0.17159099518 0.5144978238 
1.3919092003 3.5029259053 8.3867380078 19.321987191 42.668411473 91.165915693 91.16591569 42.668411472 19.32198719 
8.3867380075 3.5029259052 1.3919092002 0.51449782378 0.17159099517 0.049685524577 0.011875003415 0.0021758623077 0.00026901799159 
1.6613912364e-05 3.1822290705e-10 0 0 1.9015844016e-16 5.7293896668e-11 2.9830018257e-06 5.1405761974e-05 0.00044417885707 
0.0025982275084 0.01170410023 0.043775745429 0.1431755985 0.4256365508 1.1826431678 3.1171269067 7.7648629289 18.165533311 
18.16553331 7.7648629286 3.1171269065 1.1826431678 0.42563655079 0.1431755985 0.043775745428 0.011704100229 0.0025982275083 
0.00044417885705 5.1405761971e-05 2.9830018256e-06 5.7293896656e-11 1.9015844012e-16 0 0 7.8380509309e-27 3.5092838321e-17 