# vtk DataFile Version 5.1
vtk output
ASCII
DATASET UNSTRUCTURED_GRID
POINTS 961 double
0 1 0 1 1 0 1 0 0 
0 0 0 0 0.96666666667 0 0 0.93333333333 0 
0 0.9 0 0 0.86666666667 0 0 0.83333333333 0 
0 0.8 0 0 0.76666666667 0 0 0.73333333333 0 
0 0.7 0 0 0.66666666667 0 0 0.63333333333 0 
0 0.6 0 0 0.56666666667 0 0 0.53333333334 0 
0 0.5 0 0 0.46666666667 0 0 0.43333333334 0 
0 0.4 0 0 0.36666666667 0 0 0.33333333333 0 
0 0.3 0 0 0.26666666667 0 0 0.23333333333 0 
0 0.2 0 0 0.16666666667 0 0 0.13333333333 0 
0 0.1 0 0 0.066666666667 0 0 0.033333333333 0 
0.033333333333 0 0 0.066666666667 0 0 0.1 0 0 
0.13333333333 0 0 0.16666666667 0 0 0.2 0 0 
0.23333333333 0 0 0.26666666667 0 0 0.3 0 0 
0.33333333333 0 0 0.36666666667 0 0 0.4 0 0 
0.43333333333 0 0 0.46666666667 0 0 0.5 0 0 
0.53333333333 0 0 0.56666666667 0 0 0.6 0 0 
0.63333333333 0 0 0.66666666667 0 0 0.7 0 0 
0.73333333333 0 0 0.76666666667 0 0 0.8 0 0 
0.83333333333 0 0 0.86666666667 0 0 0.9 0 0 
0.93333333333 0 0 0.96666666667 0 0 1 0.033333333333 0 
1 0.066666666667 0 1 0.1 0 1 0.13333333333 0 
1 0.16666666667 0 1 0.2 0 1 0.23333333333 0 
1 0.26666666667 0 1 0.3 0 1 0.33333333333 0 
1 0.36666666667 0 1 0.4 0 1 0.43333333333 0 
1 0.46666666667 0 1 0.5 0 1 0.53333333333 0 
1 0.56666666667 0 1 0.6 0 1 0.63333333333 0 
1 0.66666666667 0 1 0.7 0 1 0.73333333333 0 
1 0.76666666667 0 1 0.8 0 1 0.83333333333 0 
1 0.86666666667 0 1 0.9 0 1 0.93333333333 0 
1 0.96666666667 0 0.96666666667 1 0 0.93333333333 1 0 
0.9 1 0 0.86666666667 1 0 0.83333333333 1 0 
0.8 1 0 0.76666666667 1 0 0.73333333333 1 0 
0.7 1 0 0.66666666667 1 0 0.63333333333 1 0 
0.6 1 0 0.56666666667 1 0 0.53333333334 1 0 
0.5 1 0 0.46666666667 1 0 0.43333333334 1 0 
0.4 1 0 0.36666666667 1 0 0.33333333333 1 0 
0.3 1 0 0.26666666667 1 0 0.23333333333 1 0 
0.2 1 0 0.16666666667 1 0 0.13333333333 1 0 
0.1 1 0 0.066666666667 1 0 0.033333333333 1 0 
0.033333333333 0.033333333333 0 0.033333333333 0.066666666667 0 0.033333333333 0.1 0 
0.033333333333 0.13333333333 0 0.033333333333 0.16666666667 0 0.033333333333 0.2 0 
0.033333333333 0.23333333333 0 0.033333333333 0.26666666667 0 0.033333333333 0.3 0 
0.033333333333 0.33333333333 0 0.033333333333 0.36666666667 0 0.033333333333 0.4 0 
0.033333333333 0.43333333334 0 0.033333333333 0.46666666667 0 0.033333333333 0.5 0 
0.033333333333 0.53333333334 0 0.033333333333 0.56666666667 0 0.033333333333 0.6 0 
0.033333333333 0.63333333333 0 0.033333333333 0.66666666667 0 0.033333333333 0.7 0 
0.033333333333 0.73333333333 0 0.033333333333 0.76666666667 0 0.033333333333 0.8 0 
0.033333333333 0.83333333333 0 0.033333333333 0.86666666667 0 0.033333333333 0.9 0 
0.033333333333 0.93333333333 0 0.033333333333 0.96666666667 0 0.066666666667 0.033333333333 0 
0.066666666667 0.066666666667 0 0.066666666667 0.1 0 0.066666666667 0.13333333333 0 
0.066666666667 0.16666666667 0 0.066666666667 0.2 0 0.066666666667 0.23333333333 0 
0.066666666667 0.26666666667 0 0.066666666667 0.3 0 0.066666666667 0.33333333333 0 
0.066666666667 0.36666666667 0 0.066666666667 0.4 0 0.066666666667 0.43333333333 0 
0.066666666667 0.46666666667 0 0.066666666667 0.5 0 0.066666666667 0.53333333333 0 
0.066666666667 0.56666666667 0 0.066666666667 0.6 0 0.066666666667 0.63333333333 0 
0.066666666667 0.66666666667 0 0.066666666667 0.7 0 0.066666666667 0.73333333333 0 
0.066666666667 0.76666666667 0 0.066666666667 0.8 0 0.066666666667 0.83333333333 0 
0.066666666667 0.86666666667 0 0.066666666667 0.9 0 0.066666666667 0.93333333333 0 
0.066666666667 0.96666666667 0 0.1 0.033333333333 0 0.1 0.066666666667 0 
0.1 0.1 0 0.1 0.13333333333 0 0.1 0.16666666667 0 
0.1 0.2 0 0.1 0.23333333333 0 0.1 0.26666666667 0 
0.1 0.3 0 0.1 0.33333333333 0 0.1 0.36666666667 0 
0.1 0.4 0 0.1 0.43333333333 0 0.1 0.46666666667 0 
0.1 0.5 0 0.1 0.53333333333 0 0.1 0.56666666667 0 
0.1 0.6 0 0.1 0.63333333333 0 0.1 0.66666666667 0 
0.1 0.7 0 0.1 0.73333333333 0 0.1 0.76666666667 0 
0.1 0.8 0 0.1 0.83333333333 0 0.1 0.86666666667 0 
0.1 0.9 0 0.1 0.93333333333 0 0.1 0.96666666667 0 
0.13333333333 0.033333333333 0 0.13333333333 0.066666666667 0 0.13333333333 0.1 0 
0.13333333333 0.13333333333 0 0.13333333333 0.16666666667 0 0.13333333333 0.2 0 
0.13333333333 0.23333333333 0 0.13333333333 0.26666666667 0 0.13333333333 0.3 0 
0.13333333333 0.33333333333 0 0.13333333333 0.36666666667 0 0.13333333333 0.4 0 
0.13333333333 0.43333333333 0 0.13333333333 0.46666666667 0 0.13333333333 0.5 0 
0.13333333333 0.53333333333 0 0.13333333333 0.56666666667 0 0.13333333333 0.6 0 
0.13333333333 0.63333333333 0 0.13333333333 0.66666666667 0 0.13333333333 0.7 0 
0.13333333333 0.73333333333 0 0.13333333333 0.76666666667 0 0.13333333333 0.8 0 
0.13333333333 0.83333333333 0 0.13333333333 0.86666666667 0 0.13333333333 0.9 0 
0.13333333333 0.93333333333 0 0.13333333333 0.96666666667 0 0.16666666667 0.033333333333 0 
0.16666666667 0.066666666667 0 0.16666666667 0.1 0 0.16666666667 0.13333333333 0 
0.16666666667 0.16666666667 0 0.16666666667 0.2 0 0.16666666667 0.23333333333 0 
0.16666666667 0.26666666667 0 0.16666666667 0.3 0 0.16666666667 0.33333333333 0 
0.16666666667 0.36666666667 0 0.16666666667 0.4 0 0.16666666667 0.43333333333 0 
0.16666666667 0.46666666667 0 0.16666666667 0.5 0 0.16666666667 0.53333333333 0 
0.16666666667 0.56666666667 0 0.16666666667 0.6 0 0.16666666667 0.63333333333 0 
0.16666666667 0.66666666667 0 0.16666666667 0.7 0 0.16666666667 0.73333333333 0 
0.16666666667 0.76666666667 0 0.16666666667 0.8 0 0.16666666667 0.83333333333 0 
0.16666666667 0.86666666667 0 0.16666666667 0.9 0 0.16666666667 0.93333333333 0 
0.16666666667 0.96666666667 0 0.2 0.033333333333 0 0.2 0.066666666667 0 
0.2 0.1 0 0.2 0.13333333333 0 0.2 0.16666666667 0 
0.2 0.2 0 0.2 0.23333333333 0 0.2 0.26666666667 0 
0.2 0.3 0 0.2 0.33333333333 0 0.2 0.36666666667 0 
0.2 0.4 0 0.2 0.43333333333 0 0.2 0.46666666667 0 
0.2 0.5 0 0.2 0.53333333333 0 0.2 0.56666666667 0 
0.2 0.6 0 0.2 0.63333333333 0 0.2 0.66666666667 0 
0.2 0.7 0 0.2 0.73333333333 0 0.2 0.76666666667 0 
0.2 0.8 0 0.2 0.83333333333 0 0.2 0.86666666667 0 
0.2 0.9 0 0.2 0.93333333333 0 0.2 0.96666666667 0 
0.23333333333 0.033333333333 0 0.23333333333 0.066666666667 0 0.23333333333 0.1 0 
0.23333333333 0.13333333333 0 0.23333333333 0.16666666667 0 0.23333333333 0.2 0 
0.23333333333 0.23333333333 0 0.23333333333 0.26666666667 0 0.23333333333 0.3 0 
0.23333333333 0.33333333333 0 0.23333333333 0.36666666667 0 0.23333333333 0.4 0 
0.23333333333 0.43333333333 0 0.23333333333 0.46666666667 0 0.23333333333 0.5 0 
0.23333333333 0.53333333333 0 0.23333333333 0.56666666667 0 0.23333333333 0.6 0 
0.23333333333 0.63333333333 0 0.23333333333 0.66666666667 0 0.23333333333 0.7 0 
0.23333333333 0.73333333333 0 0.23333333333 0.76666666667 0 0.23333333333 0.8 0 
0.23333333333 0.83333333333 0 0.23333333333 0.86666666667 0 0.23333333333 0.9 0 
0.23333333333 0.93333333333 0 0.23333333333 0.96666666667 0 0.26666666667 0.033333333333 0 
0.26666666667 0.066666666667 0 0.26666666667 0.1 0 0.26666666667 0.13333333333 0 
0.26666666667 0.16666666667 0 0.26666666667 0.2 0 0.26666666667 0.23333333333 0 
0.26666666667 0.26666666667 0 0.26666666667 0.3 0 0.26666666667 0.33333333333 0 
0.26666666667 0.36666666667 0 0.26666666667 0.4 0 0.26666666667 0.43333333333 0 
0.26666666667 0.46666666667 0 0.26666666667 0.5 0 0.26666666667 0.53333333333 0 
0.26666666667 0.56666666667 0 0.26666666667 0.6 0 0.26666666667 0.63333333333 0 
0.26666666667 0.66666666667 0 0.26666666667 0.7 0 0.26666666667 0.73333333333 0 
0.26666666667 0.76666666667 0 0.26666666667 0.8 0 0.26666666667 0.83333333333 0 
0.26666666667 0.86666666667 0 0.26666666667 0.9 0 0.26666666667 0.93333333333 0 
0.26666666667 0.96666666667 0 0.3 0.033333333333 0 0.3 0.066666666667 0 
0.3 0.1 0 0.3 0.13333333333 0 0.3 0.16666666667 0 
0.3 0.2 0 0.3 0.23333333333 0 0.3 0.26666666667 0 
0.3 0.3 0 0.3 0.33333333333 0 0.3 0.36666666667 0 
0.3 0.4 0 0.3 0.43333333333 0 0.3 0.46666666667 0 
0.3 0.5 0 0.3 0.53333333333 0 0.3 0.56666666667 0 
0.3 0.6 0 0.3 0.63333333333 0 0.3 0.66666666667 0 
0.3 0.7 0 0.3 0.73333333333 0 0.3 0.76666666667 0 
0.3 0.8 0 0.3 0.83333333333 0 0.3 0.86666666667 0 
0.3 0.9 0 0.3 0.93333333333 0 0.3 0.96666666667 0 
0.33333333333 0.033333333333 0 0.33333333333 0.066666666667 0 0.33333333333 0.1 0 
0.33333333333 0.13333333333 0 0.33333333333 0.16666666667 0 0.33333333333 0.2 0 
0.33333333333 0.23333333333 0 0.33333333333 0.26666666667 0 0.33333333333 0.3 0 
0.33333333333 0.33333333333 0 0.33333333333 0.36666666667 0 0.33333333333 0.4 0 
0.33333333333 0.43333333333 0 0.33333333333 0.46666666667 0 0.33333333333 0.5 0 
0.33333333333 0.53333333333 0 0.33333333333 0.56666666667 0 0.33333333333 0.6 0 
0.33333333333 0.63333333333 0 0.33333333333 0.66666666667 0 0.33333333333 0.7 0 
0.33333333333 0.73333333333 0 0.33333333333 0.76666666667 0 0.33333333333 0.8 0 
0.33333333333 0.83333333333 0 0.33333333333 0.86666666667 0 0.33333333333 0.9 0 
0.33333333333 0.93333333333 0 0.33333333333 0.96666666667 0 0.36666666667 0.033333333333 0 
0.36666666667 0.066666666667 0 0.36666666667 0.1 0 0.36666666667 0.13333333333 0 
0.36666666667 0.16666666667 0 0.36666666667 0.2 0 0.36666666667 0.23333333333 0 
0.36666666667 0.26666666667 0 0.36666666667 0.3 0 0.36666666667 0.33333333333 0 
0.36666666667 0.36666666667 0 0.36666666667 0.4 0 0.36666666667 0.43333333333 0 
0.36666666667 0.46666666667 0 0.36666666667 0.5 0 0.36666666667 0.53333333333 0 
0.36666666667 0.56666666667 0 0.36666666667 0.6 0 0.36666666667 0.63333333333 0 
0.36666666667 0.66666666667 0 0.36666666667 0.7 0 0.36666666667 0.73333333333 0 
0.36666666667 0.76666666667 0 0.36666666667 0.8 0 0.36666666667 0.83333333333 0 
0.36666666667 0.86666666667 0 0.36666666667 0.9 0 0.36666666667 0.93333333333 0 
0.36666666667 0.96666666667 0 0.4 0.033333333333 0 0.4 0.066666666667 0 
0.4 0.1 0 0.4 0.13333333333 0 0.4 0.16666666667 0 
0.4 0.2 0 0.4 0.23333333333 0 0.4 0.26666666667 0 
0.4 0.3 0 0.4 0.33333333333 0 0.4 0.36666666667 0 
[...]
CELL_DATA 900
FIELD FieldData 3
radiation%20flux%20density 1 900 double
0 0 0 0 0 0 0 0 0 
0 0 0 0 0 0 0 0 0 
0 0 0 0 0 0 0 0 0 
0 0 0 0 0.26459064783 1.2835759988 4.7536293939 14.428162068 37.713014073 
86.629885871 176.82924216 323.455813 534.05716975 801.42478377 1100.2092248 1389.8430036 1622.6307866 1752.784766 
1740.3100261 1589.414213 1345.4912339 1054.7722626 762.3679315 504.98945149 304.48983199 165.93255495 81.11619734 
35.260228844 13.473807102 4.4311206083 1.1911267207 0.24284671484 0 0 1.2858956875 4.9395303462 
15.554797269 42.164845865 100.4304028 212.56979436 403.22806581 690.50905505 1075.0847002 1532.5579418 2014.3641645 
2457.49783 2798.1398427 2981.7848212 2961.7260976 2743.8462037 2382.830236 1934.810228 1460.8716059 1018.7646744 
651.46405221 379.23887708 199.50302445 94.130193986 39.486394088 14.556424555 4.6175599686 1.1975463254 0 
0 4.7292421395 15.508069444 43.316398074 106.30822762 231.821647 452.97550084 798.79754686 1280.2901221 
1878.4339655 2541.8675769 3196.970559 3765.7732004 4182.1230604 4397.6253407 4369.8722184 4105.7559059 3657.5753795 
3077.0163549 2428.4639812 1784.2952305 1210.8907999 753.18198564 426.22996737 217.85721548 99.835227415 40.667091644 
14.553476624 4.4339734538 0 0 14.3001123 41.898184136 105.95662928 237.90326702 478.40424153 
867.60703478 1428.7279243 2151.334777 2984.3891996 3845.0102904 4640.1861769 5290.2667217 5742.0942404 5965.785392 
5930.673342 5643.9858898 5147.3342254 4475.6574133 3682.222753 2841.9975108 2040.0536123 1350.752268 818.60413398 
450.82817363 224.04600719 99.761377849 39.447043553 13.463242913 0 0 37.246008902 99.440343841 
230.22881662 476.68893266 889.34945676 1504.8745827 2324.8263124 3302.6280168 4348.6019646 5353.5729409 6219.8940739 
6883.9905898 7320.0928462 7525.168922 7484.0903757 7203.7077135 6710.0491801 6012.5989731 5139.5957015 4152.0533187 
3140.393881 2204.1254193 1423.9377087 840.50705827 450.22988063 217.40558245 93.908195856 35.180463536 0 
0 85.23789898 209.67602455 448.13907936 861.15773977 1499.0317078 2378.4653435 3462.8683508 4660.8609794 
5848.4625697 6906.0813815 7751.6886218 8354.2998333 8724.1360496 8886.7495747 8841.9903055 8595.7461256 8157.9646061 
7510.1981897 6646.9184461 5599.4053272 4444.5946247 3292.7573361 2257.2933049 1420.9974739 815.83396607 424.46864191 
198.61744099 80.760217737 0 0 173.30084898 396.14220344 787.04486107 1412.2288244 2306.0516629 
3448.131021 4753.424697 6088.7027536 7311.7674536 8314.7238881 9049.8408696 9527.9922631 9795.254619 9900.6916928 
9854.9028376 9662.4954799 9320.8406542 8787.7711962 8023.4367567 7020.0970133 5823.4056244 4533.7858472 3282.7228312 
2192.9388377 1342.1645371 747.84535898 376.43440895 164.71093972 0 0 315.70083082 675.5137418 
1255.9720769 2116.9493225 3260.7660731 4618.8636844 6059.0661524 7421.4388089 8568.3826069 9424.15582 9985.8110406 
10305.207584 10456.165923 10501.808212 10457.393492 10326.230917 10098.960929 9718.4610029 9117.7188312 8250.1447404 
7119.6857252 5797.4254866 4411.6075076 3111.0699465 2018.602294 1197.3716499 644.01759421 301.02571412 0 
0 519.02196487 1047.0188447 1834.0174225 2921.9102511 4270.533243 5763.0246148 7233.2574094 8516.612763 
9501.3743505 10155.844491 10521.41867 10681.491166 10725.258818 10719.599953 10678.273825 10603.501523 10485.542235 
10262.274626 9851.029306 9174.7818141 8195.5486433 6943.3308365 5522.8292032 4088.3548283 2795.7298261 1754.4426829 
1001.5975083 496.55709325 0 0 775.24639892 1485.0192549 2467.9927772 3741.4822037 5222.1395964 
6755.5409648 8161.4618655 9291.4193453 10072.546547 10517.994287 10704.203505 10732.541644 10695.267863 10654.590404 
10617.23291 10584.647855 10552.698306 10462.684951 10228.04733 9753.9144736 8968.6538002 7859.8233632 6495.8513135 
5016.6494082 3592.4237633 2369.1778368 1425.5401423 744.24427871 0 0 1058.2831328 1939.3579229 
3081.1542519 4477.1816771 6009.5741146 7503.2955425 8783.2355786 9730.4479826 10313.328515 10581.868709 10634.126303 
10576.29924 10494.18854 10439.639326 10406.406706 10395.504003 10414.852857 10415.077816 10315.043539 10014.505001 
9420.6381259 8485.6741276 7238.9624633 5792.9272034 4313.80523 2968.1577924 1868.1904164 1019.490457 0 
0 1325.8795388 2342.9977149 3587.7798779 5036.7353299 6551.5484077 7953.6871268 9086.4879697 9864.6474355 
10291.864521 10442.693527 10423.653707 10335.609301 10251.624658 10209.344279 10179.892759 10164.142851 10192.215388 
10228.165622 10202.585636 10019.684495 9577.8985605 8805.5389265 7698.1391779 6336.3149548 4869.3592579 3468.0104157 
2264.7462189 1281.64729 0 0 1525.240943 2621.6342657 3904.0717259 5341.2865983 6789.4370133 
8079.8269697 9080.3194848 9735.9661402 10075.411062 10185.203468 10169.833272 10118.007151 10085.937852 10093.005046 
10066.680653 10007.992717 9990.6973132 9996.5546566 9972.0913263 9832.6761853 9478.0813996 8824.6009054 7843.6038186 
6586.7132484 5180.1522379 3785.8759432 2542.2894145 1479.1648713 0 0 1597.7966019 2697.7747009 
3947.0016853 5314.7923956 6665.1863414 7848.3578682 8757.3034805 9360.0367744 9698.7122791 9861.1676896 9942.6623604 
10015.717669 10116.189303 10238.253809 10214.145682 10045.453042 9901.5649215 9788.9137654 9673.5051604 9485.8311775 
9133.957414 8532.4162383 7639.2761795 6484.0598786 5169.0748855 3838.5593698 2623.7839888 1554.1231999 0 
0 1475.4473563 2478.4253165 3609.2141284 4844.4413703 6069.0652071 7159.5950448 8032.7242979 8670.8970017 
9119.0450105 9458.1775271 9770.7809872 10112.341469 10495.491826 10877.334192 10854.061303 10428.634009 10007.463867 
9633.1617754 9293.855795 8935.8482193 8478.8204394 7843.3186353 6984.410664 5917.6415439 4722.6002345 3518.357103 
2416.2285412 1438.6059106 0 0 1096.0200807 1862.7735944 2750.0059568 3751.1526959 4791.360574 
5787.2068341 6682.3189062 7467.8463198 8182.9100787 8897.1580206 9683.4317674 10588.72742 11609.316316 12662.058042 
12636.702709 11539.922289 10486.757005 9557.4405154 8754.45706 8030.8377056 7314.3370284 6535.6496638 5655.0601433 
4679.6049585 3662.8681449 2685.2020552 1819.0217009 1070.424432 0 0 984.62585754 1931.2762982 
3408.7482982 5601.2347086 8635.542913 12581.143875 17465.237399 23325.841633 30291.543833 38650.125545 48847.749672 
61372.372179 76608.147347 95513.330597 95316.766373 76132.380083 60787.335031 48241.037808 38072.802129 29774.953467 
22888.517096 17115.284883 12317.324132 8448.9163622 5477.8380839 3332.7846593 1887.9706969 962.50086481 0 
0 130.98227551 292.39581395 591.67404899 1116.0660026 1975.9361304 3306.2211775 5270.999323 8082.810454 
12046.817575 17629.062967 25520.041626 36616.016312 51793.815359 71572.122565 71445.288164 51506.946958 36301.206661 
25231.24691 17387.027783 11856.575811 7941.5398941 5171.8943681 3240.7334419 1935.3317103 1092.5360406 578.98074235 
286.04821043 128.11938972 0 0 14.609059727 36.841623596 84.480794313 180.50051046 361.72004679 
684.65122326 1233.9816762 2137.8041836 3596.7427981 5934.9600132 9671.7206267 15574.454224 24547.027398 36990.490429 
36932.720437 24423.443117 15451.501104 9570.2742389 5858.7980888 3543.2818989 2102.4300524 1211.9016472 671.68088737 
354.57591713 176.82550679 82.721806013 36.062249638 14.296631141 0 0 1.3515936363 3.8833192082 
10.110167633 24.365112104 54.91351947 116.68154425 235.74354039 457.28022117 860.28110028 1584.9104262 2877.8689882 
5146.8997499 8945.836878 14569.941776 14549.468591 8904.1318255 5108.9798749 2849.4847627 1565.6474029 848.0964299 
450.03556004 231.68797842 114.54732676 53.862020059 23.881898281 9.9037868102 3.8020309756 1.3226165102 0 
0 0.089421300601 0.32309718729 0.9872236174 2.7440572573 6.9928632959 16.672279006 37.643100801 81.353645991 
170.20302572 347.97146695 699.53750003 1380.2059955 2627.8700641 4600.4662947 4594.5682172 2616.375734 1370.6068524 
692.98382119 343.92822196 167.88531365 80.108654051 37.014385517 16.374799369 6.8611301214 2.6905744169 0.96785073102 
0.31577804214 0.087264103098 0 0 0.00072927649679 0.013047818146 0.067758272472 0.23806062655 0.72167846894 
1.9844153859 5.0542763102 12.213755657 28.375166094 64.200125692 142.3640716 308.57323966 640.76816107 1201.5792603 
1200.1606303 638.11390352 306.53072309 141.08776267 63.48171637 28.000566343 12.03122115 4.9709981217 1.948750677 
0.70916401763 0.23239585223 0.065469936909 0.012666830448 0.00070147690113 0 0 6.3258538399e-18 -3.699501768e-18 
-3.1746220803e-18 0.0090571986247 0.049790949863 0.17884631757 0.54904758026 1.5237636066 3.9949618798 10.0627244 24.624738806 
58.551374988 132.29047822 265.19786996 264.90774014 131.76780992 58.17999197 24.411926846 9.9536119032 3.9429114206 
1.5008435307 0.53972550333 0.1754470425 0.048059242933 0.008751334571 -6.6679627056e-19 -3.8679992893e-18 -4.716741341e-18 0 
0 -4.5271026222e-18 1.978474941e-18 -8.4588528717e-18 -2.9094860144e-18 4.6369411633e-19 0.0065547695143 0.037006492891 0.14285440551 
0.45428029157 1.3136325518 3.6197429497 9.5104649266 23.417712696 50.205593402 50.154470679 23.328804726 9.4520507555 
3.5889962925 1.299115237 0.44809562315 0.14051919699 0.036238781392 0.0063828870965 1.0485293522e-17 -3.3191790467e-18 2.3570699816e-18 
3.8014635323e-18 2.4070976955e-18 0 0 -8.6477176939e-18 -2.930234986e-18 -2.1058176272e-18 -3.0443276558e-18 -1.8608264989e-18 
-9.2355516686e-18 2.8782227698e-18 0.0043909417602 0.030291775057 0.12972259581 0.42988788918 1.2951515273 3.554725719 8.2120202971 
8.2041911486 3.5415218747 1.2871908786 0.42612503353 0.12808518389 0.029764622674 0.0042893052717 -5.4309282358e-18 -4.1150076436e-18 
-4.646583952e-18 7.2572913256e-18 -1.079480844e-17 -6.1651461348e-18 -8.9194624557e-20 0 0 8.784976812e-18 -4.3613896708e-19 
7.8566643731e-18 -9.8448512808e-18 8.0151167139e-19 8.01675334e-18 1.4968808144e-17 -2.5573174446e-18 5.890000166e-18 0.0031963698126 0.030221703969 
0.13414389634 0.4409830409 1.1420363662 1.1409928382 0.43930450706 0.13326029355 0.029885009016 0.0031321516902 6.4339475822e-18 
1.913440559e-18 4.7630399039e-18 2.3508138761e-18 9.1988868475e-18 -3.9782826176e-18 -4.9010230759e-18 -4.1629692202e-18 1.1551356353e-17 0 
0 -9.4310528671e-18 7.8577021848e-18 2.2725826626e-18 2.0650482898e-18 1.2114985548e-18 4.6274291877e-18 4.0998085255e-19 4.8713097785e-18 
3.946252767e-18 -6.2781236642e-18 7.8373818782e-18 0.0043012302868 0.033888556216 0.12613521835 0.1260187916 0.033721212861 0.0042563163289 
1.2988237043e-17 1.9626290699e-18 1.1724464594e-18 -1.104773677e-17 3.8258952753e-18 7.9461201569e-18 1.5415764927e-18 6.7578334306e-18 2.4182976797e-18 
-1.0067274886e-17 3.9553097264e-18 0 0 5.9300625317e-18 -5.4420575239e-18 -1.1583129483e-18 4.0604723471e-18 -2.6730576269e-18 
-9.4166562635e-18 6.3727736422e-18 4.8491552793e-18 -7.9664504537e-19 -7.445789773e-19 6.5329471756e-19 -8.0205174607e-18 -8.5177150065e-18 0.0044019575579 
0.0043957197117 -1.0459483707e-17 -7.2244609912e-18 -8.0841998086e-18 3.0870615754e-19 -7.3495473214e-18 -2.5761487916e-18 5.9271447772e-18 2.0107012417e-18 
-1.8473114671e-18 -1.1531901847e-18 3.094558355e-19 -2.3591463683e-19 -8.1608154368e-18 0 0 0 0 
0 0 0 0 0 0 0 0 0 
0 0 0 0 0 0 0 0 0 
0 0 0 0 0 0 0 0 0 

dose 1 900 double
0 0 0 0 0 0 0 0 0 
0 0 0 0 0 0 0 0 0 
0 0 0 0 0 0 0 0 0 
0 0 0 0 0.0073846050627 0.041875220588 0.17351906166 0.5787685699 1.6534992216 
4.1473956082 9.2560932655 18.54485555 33.588200468 55.32339427 83.277326256 114.94983254 145.56957474 168.39670285 
166.80791707 141.76997647 110.57762981 79.372559049 52.366803748 31.632521224 17.402194443 8.6641419954 3.8757576384 
1.5431184621 0.53959566931 0.16138728189 0.03867339323 0.0067360117962 0 0 0.042241046386 0.17970288711 
0.62118332306 1.8374451883 4.771788521 11.027204323 22.88519655 42.962336521 73.432150286 114.94980055 165.67249763 
220.77709329 272.57214596 311.42048386 308.50738626 265.56020591 212.55811464 158.09765961 108.97183032 69.277534249 
40.392647249 21.466195278 10.328031414 4.4649845002 1.7183656126 0.58046429064 0.16777751362 0.039180771624 0 
0 0.17288357859 0.61921122482 1.8884553579 5.0572228211 12.053614568 25.808466198 50.006801243 88.271207555 
142.847058 213.22930597 295.30797701 381.38233867 460.84954387 522.13740574 517.23363801 449.04286987 367.40521095 
282.10780716 202.43673246 135.00465733 83.158971006 47.009700445 24.229329152 11.307689243 4.7426113745 1.7709204416 
0.58031320331 0.16179430602 0 0 0.57387966372 1.8256981513 5.0405011212 12.382044809 27.324170045 
54.564184894 99.261702011 165.55637254 254.80455358 364.23306989 486.6737958 611.44785503 725.72476776 818.39882512 
810.5929918 707.0354785 589.28178699 465.36855655 346.29381054 241.25018538 156.29369715 93.526851359 51.351340435 
25.699745022 11.643583357 4.7400731519 1.7170847998 0.53967638789 0 0 1.6331700662 4.7247721548 
11.970923921 27.226265074 56.019460971 104.9655356 180.23986653 285.47057262 419.83091268 577.28163801 747.36101452 
917.14129517 1073.2363427 1209.8635325 1197.9789696 1045.1259313 884.04784205 715.23784465 549.61209543 398.22448328 
270.07946633 170.23303165 99.038099307 52.830596679 25.673917086 11.290119077 4.4573570266 1.5411166812 0 
0 4.0810822912 10.877241257 25.532767438 54.157576494 104.55579877 184.85779439 301.20622671 455.28640296 
642.88401779 854.27123717 1076.3463885 1295.6118719 1500.8277696 1700.3114857 1682.8305004 1460.2734447 1248.7226015 
1030.7774073 814.41610782 610.93107983 431.70341916 285.19652641 174.88853437 98.881650948 51.217664818 24.152070631 
10.292810892 3.863222249 0 0 9.0710721999 22.482121671 49.268209648 98.108430931 178.77259927 
299.9136948 466.16749105 675.92037475 920.95749959 1188.3777513 1464.0485293 1736.3833236 1999.9291168 2292.4609686 
2267.3851398 1943.2984242 1672.8332639 1402.8004631 1134.4214935 876.85539617 642.41061928 442.5561645 284.54581372 
169.5726789 93.064819188 46.747518651 21.340087931 8.6137448136 0 0 18.096919254 42.023369222 
86.582375679 162.88912274 281.82670152 451.17350965 672.65799812 940.61043097 1243.1745831 1565.7871705 1895.629822 
2226.0155014 2561.8695381 2997.4050828 2962.0517877 2484.7141083 2143.0405855 1817.1209632 1496.7080371 1186.0293287 
896.20247226 640.38073115 429.34492745 268.16225907 155.01040204 82.417762065 40.017359592 17.239682745 0 
0 32.63154187 71.498089012 139.44525838 249.44979359 412.31605158 633.63501752 911.4169992 1236.1548162 
1593.7315555 1970.1842211 2356.7703899 2755.0321757 3186.201525 3849.2422382 3800.0103399 3083.0656919 2650.1240094 
2260.3008347 1886.102779 1523.8379085 1180.9661932 870.29392353 604.91258531 393.62718873 238.18460481 133.18718815 
68.314077077 31.189209019 0 0 53.496070192 111.36710253 207.04884658 354.55970094 563.52917498 
836.61622311 1168.2490282 1546.3158597 1956.5890356 2388.4003899 2840.1170693 3325.4887234 3890.5378205 4927.9824628 
4860.1698766 3754.9668874 3196.7681362 2726.15413 2290.7322924 1875.5315055 1481.6755963 1119.1643617 801.41996006 
539.87003248 339.74363555 198.45368264 106.77917981 51.307638701 0 0 80.107895647 159.59525753 
284.94990541 470.49240013 724.11984421 1045.7088574 1427.2289499 1855.9798462 2320.2266572 2815.5799462 3351.2047197 
3958.9381653 4723.7144594 6404.2741325 6312.0923606 4548.7033296 3805.859598 3221.7328369 2707.0893759 2230.7864249 
1784.3185479 1372.0786212 1005.3472301 696.26273866 452.48537695 274.11484118 153.57009915 77.102533185 0 
0 109.86350938 211.1222364 364.96610414 585.69411613 879.73885746 1245.3338002 1673.9772784 2154.9560839 
2681.9830784 3260.546004 3916.1640572 4709.7544961 5793.5501225 8659.8605974 8536.7981758 5572.5408989 4533.9622635 
3774.874144 3145.1632909 2587.8199207 2079.47675 1615.4033866 1201.8344704 849.1081374 565.39615947 352.38983595 
203.8924626 106.12127903 0 0 137.81275354 257.80302934 435.57466683 685.73760025 1014.5549526 
1420.8653027 1898.6908062 2442.7927738 3056.3963955 3760.5838584 4607.8514352 5712.9008488 7366.5712044 12412.074786 
12251.525348 7094.5105173 5518.5024978 4459.6826893 3642.8117769 2961.5106756 2367.0207143 1839.7172676 1376.7006536 
983.04722417 664.4955317 422.13328162 249.88331607 133.59687514 0 0 156.78304008 289.0631834 
483.57449548 757.0924088 1119.6780321 1577.2582463 2136.2660233 2812.2241743 3643.1144662 4711.2805941 6188.406291 
8460.1167602 12279.705486 23389.642315 23185.105903 11947.630607 8244.6691233 6034.2538458 4593.3151346 3550.3345526 
2739.1976697 2079.8321148 1535.0492835 1089.4605267 736.56765195 470.44501695 281.21915699 152.53666421 0 
0 148.88924374 273.87914687 457.7747005 717.12651244 1062.9538023 1503.328002 2047.6926477 2714.7394306 
3544.8644247 4621.1543572 6113.4339862 8401.5405105 12226.751992 23377.873077 23244.259654 12005.269771 8250.0215666 
5999.7720328 4530.8462211 3471.8941142 2656.2066911 2001.8487552 1468.700605 1037.9725853 700.04757156 446.78461355 
267.27628571 145.29611499 0 0 109.20583696 203.59543829 344.50716278 545.84339569 817.08996522 
1164.2355155 1591.4330637 2104.4833735 2715.9171601 3451.7828534 4362.6708183 5551.4843033 7284.7064792 12492.116658 
12461.356908 7222.4202794 5489.5569395 4304.1755337 3398.7239794 2669.5890226 2065.6204391 1560.2417824 1140.4010353 
799.83753067 534.07228958 336.97484569 199.10660127 106.78973826 0 0 13.099472681 27.877286605 
54.288260892 99.027954527 170.37266453 278.34764452 435.19049461 656.88181141 966.43116821 1399.3579453 2011.5585293 
2892.3765532 4211.1808203 7269.8244256 7255.1443073 4181.4767572 2863.8607094 1986.7516906 1379.0573859 950.61366865 
645.12043163 426.86405683 272.75845884 166.83133902 96.919192292 53.113051904 27.267304277 12.811177498 0 
0 1.4985901938 3.5894954753 7.8818685803 16.197148152 31.347227569 57.518383536 100.84052055 170.43779435 
280.45932357 453.74414696 727.71410068 1163.1917967 1862.7764492 3281.1205871 3275.4783493 1851.5737387 1152.9984106 
719.52361474 447.62492094 276.13859618 167.54071781 98.997338094 56.40929036 30.718622875 15.862975218 7.715924927 
3.5128425188 1.4663247851 0 0 0.1497230416 0.40231177331 0.99153736685 2.2834109506 4.9437513587 
10.131170439 19.806811633 37.276467563 68.202272031 122.49754413 217.66014768 384.02803664 672.57440627 1230.795754 
1228.9239917 668.95940487 380.94598723 215.38059046 120.94156123 67.2038607 36.670579674 19.458951738 9.9426902751 
4.8477345716 2.2376130287 0.97116265572 0.39390112079 0.14655934917 0 0 0.012441684403 0.038206008269 
0.10657240675 0.27544508867 0.66612455318 1.5202125417 3.3024617307 6.8936116333 13.964879817 27.719569277 54.306501894 
105.24630007 200.73446156 384.92451699 384.39586172 199.74412162 104.45827322 53.770037111 27.38440842 13.768896122 
6.7856329937 3.2463555567 1.4927399739 0.65350907978 0.27003151809 0.10441081752 0.037409795574 0.012175580884 0 
0 0.00069862411926 0.0028095807621 0.0093304761815 0.027889380553 0.076253200793 0.19468898919 0.47032942254 1.0873391393 
2.4334068366 5.3225216001 11.46049526 24.31350067 50.34609488 101.59494298 101.46735184 50.114390221 24.141652706 
11.35272386 5.2607826816 2.4004305231 1.0708049239 0.46252391986 0.19123515411 0.074820384535 0.027353752414 0.0091471245029 
0.0027437414173 0.00068135302244 0 0 3.0381019787e-06 9.1531705704e-05 0.0005342474372 0.0021245732115 0.0070282475894 
0.020809603083 0.056821779241 0.14668599204 0.36340085365 0.87602772768 2.0704226909 4.7988301505 10.766653608 22.918440817 
22.891908135 10.719930124 4.7665481316 2.0517580555 0.86621018432 0.35860424478 0.14449439095 0.055884251564 0.020434184079 
0.0069048490351 0.0020674535173 0.00051348023995 8.8754998589e-05 2.9222912993e-06 0 0 2.0055266766e-19 -1.1728771599e-19 
-1.0064711312e-19 6.1262055486e-05 0.0003975649486 0.0016293507243 0.0054873232716 0.016426130308 0.046103029898 0.12374945028 0.3223001872 
0.81707244648 1.9855444886 4.4673278207 4.462534117 1.977351704 0.8118013212 0.31948977726 0.12241097517 0.045494824064 
0.016176399833 0.005392722335 0.0015974047053 0.00038259835038 5.908364332e-05 -2.1139876802e-20 -1.2262970274e-19 -1.4953792524e-19 0 
0 -1.4352568533e-19 6.272488068e-20 -2.6817652631e-19 -9.2241331601e-20 1.4700796819e-20 4.4427695409e-05 0.00029959497304 0.0013298289857 