# vtk DataFile Version 5.1
vtk output
ASCII
DATASET UNSTRUCTURED_GRID
POINTS 961 double
0 1 0 1 1 0 1 0 0 
0 0 0 0 0.96666666667 0 0 0.93333333333 0 
0 0.9 0 0 0.86666666667 0 0 0.83333333333 0 
0 0.8 0 0 0.76666666667 0 0 0.73333333333 0 
0 0.7 0 0 0.66666666667 0 0 0.63333333333 0 
0 0.6 0 0 0.56666666667 0 0 0.53333333334 0 
0 0.5 0 0 0.46666666667 0 0 0.43333333334 0 
0 0.4 0 0 0.36666666667 0 0 0.33333333333 0 
0 0.3 0 0 0.26666666667 0 0 0.23333333333 0 
0 0.2 0 0 0.16666666667 0 0 0.13333333333 0 
0 0.1 0 0 0.066666666667 0 0 0.033333333333 0 
0.033333333333 0 0 0.066666666667 0 0 0.1 0 0 
0.13333333333 0 0 0.16666666667 0 0 0.2 0 0 
0.23333333333 0 0 0.26666666667 0 0 0.3 0 0 
0.33333333333 0 0 0.36666666667 0 0 0.4 0 0 
0.43333333333 0 0 0.46666666667 0 0 0.5 0 0 
0.53333333333 0 0 0.56666666667 0 0 0.6 0 0 
0.63333333333 0 0 0.66666666667 0 0 0.7 0 0 
0.73333333333 0 0 0.76666666667 0 0 0.8 0 0 
0.83333333333 0 0 0.86666666667 0 0 0.9 0 0 
0.93333333333 0 0 0.96666666667 0 0 1 0.033333333333 0 
1 0.066666666667 0 1 0.1 0 1 0.13333333333 0 
1 0.16666666667 0 1 0.2 0 1 0.23333333333 0 
1 0.26666666667 0 1 0.3 0 1 0.33333333333 0 
1 0.36666666667 0 1 0.4 0 1 0.43333333333 0 
1 0.46666666667 0 1 0.5 0 1 0.53333333333 0 
1 0.56666666667 0 1 0.6 0 1 0.63333333333 0 
1 0.66666666667 0 1 0.7 0 1 0.73333333333 0 
1 0.76666666667 0 1 0.8 0 1 0.83333333333 0 
1 0.86666666667 0 1 0.9 0 1 0.93333333333 0 
1 0.96666666667 0 0.96666666667 1 0 0.93333333333 1 0 
0.9 1 0 0.86666666667 1 0 0.83333333333 1 0 
0.8 1 0 0.76666666667 1 0 0.73333333333 1 0 
0.7 1 0 0.66666666667 1 0 0.63333333333 1 0 
0.6 1 0 0.56666666667 1 0 0.53333333334 1 0 
0.5 1 0 0.46666666667 1 0 0.43333333334 1 0 
0.4 1 0 0.36666666667 1 0 0.33333333333 1 0 
0.3 1 0 0.26666666667 1 0 0.23333333333 1 0 
0.2 1 0 0.16666666667 1 0 0.13333333333 1 0 
0.1 1 0 0.066666666667 1 0 0.033333333333 1 0 
0.033333333333 0.033333333333 0 0.033333333333 0.066666666667 0 0.033333333333 0.1 0 
0.033333333333 0.13333333333 0 0.033333333333 0.16666666667 0 0.033333333333 0.2 0 
0.033333333333 0.23333333333 0 0.033333333333 0.26666666667 0 0.033333333333 0.3 0 
0.033333333333 0.33333333333 0 0.033333333333 0.36666666667 0 0.033333333333 0.4 0 
0.033333333333 0.43333333334 0 0.033333333333 0.46666666667 0 0.033333333333 0.5 0 
0.033333333333 0.53333333334 0 0.033333333333 0.56666666667 0 0.033333333333 0.6 0 
0.033333333333 0.63333333333 0 0.033333333333 0.66666666667 0 0.033333333333 0.7 0 
0.033333333333 0.73333333333 0 0.033333333333 0.76666666667 0 0.033333333333 0.8 0 
0.033333333333 0.83333333333 0 0.033333333333 0.86666666667 0 0.033333333333 0.9 0 
0.033333333333 0.93333333333 0 0.033333333333 0.96666666667 0 0.066666666667 0.033333333333 0 
0.066666666667 0.066666666667 0 0.066666666667 0.1 0 0.066666666667 0.13333333333 0 
0.066666666667 0.16666666667 0 0.066666666667 0.2 0 0.066666666667 0.23333333333 0 
0.066666666667 0.26666666667 0 0.066666666667 0.3 0 0.066666666667 0.33333333333 0 
0.066666666667 0.36666666667 0 0.066666666667 0.4 0 0.066666666667 0.43333333333 0 
0.066666666667 0.46666666667 0 0.066666666667 0.5 0 0.066666666667 0.53333333333 0 
0.066666666667 0.56666666667 0 0.066666666667 0.6 0 0.066666666667 0.63333333333 0 
0.066666666667 0.66666666667 0 0.066666666667 0.7 0 0.066666666667 0.73333333333 0 
0.066666666667 0.76666666667 0 0.066666666667 0.8 0 0.066666666667 0.83333333333 0 
0.066666666667 0.86666666667 0 0.066666666667 0.9 0 0.066666666667 0.93333333333 0 
0.066666666667 0.96666666667 0 0.1 0.033333333333 0 0.1 0.066666666667 0 
0.1 0.1 0 0.1 0.13333333333 0 0.1 0.16666666667 0 
0.1 0.2 0 0.1 0.23333333333 0 0.1 0.26666666667 0 
0.1 0.3 0 0.1 0.33333333333 0 0.1 0.36666666667 0 
0.1 0.4 0 0.1 0.43333333333 0 0.1 0.46666666667 0 
0.1 0.5 0 0.1 0.53333333333 0 0.1 0.56666666667 0 
0.1 0.6 0 0.1 0.63333333333 0 0.1 0.66666666667 0 
0.1 0.7 0 0.1 0.73333333333 0 0.1 0.76666666667 0 
0.1 0.8 0 0.1 0.83333333333 0 0.1 0.86666666667 0 
0.1 0.9 0 0.1 0.93333333333 0 0.1 0.96666666667 0 
0.13333333333 0.033333333333 0 0.13333333333 0.066666666667 0 0.13333333333 0.1 0 
0.13333333333 0.13333333333 0 0.13333333333 0.16666666667 0 0.13333333333 0.2 0 
0.13333333333 0.23333333333 0 0.13333333333 0.26666666667 0 0.13333333333 0.3 0 
0.13333333333 0.33333333333 0 0.13333333333 0.36666666667 0 0.13333333333 0.4 0 
0.13333333333 0.43333333333 0 0.13333333333 0.46666666667 0 0.13333333333 0.5 0 
0.13333333333 0.53333333333 0 0.13333333333 0.56666666667 0 0.13333333333 0.6 0 
0.13333333333 0.63333333333 0 0.13333333333 0.66666666667 0 0.13333333333 0.7 0 
0.13333333333 0.73333333333 0 0.13333333333 0.76666666667 0 0.13333333333 0.8 0 
0.13333333333 0.83333333333 0 0.13333333333 0.86666666667 0 0.13333333333 0.9 0 
0.13333333333 0.93333333333 0 0.13333333333 0.96666666667 0 0.16666666667 0.033333333333 0 
0.16666666667 0.066666666667 0 0.16666666667 0.1 0 0.16666666667 0.13333333333 0 
0.16666666667 0.16666666667 0 0.16666666667 0.2 0 0.16666666667 0.23333333333 0 
0.16666666667 0.26666666667 0 0.16666666667 0.3 0 0.16666666667 0.33333333333 0 
0.16666666667 0.36666666667 0 0.16666666667 0.4 0 0.16666666667 0.43333333333 0 
0.16666666667 0.46666666667 0 0.16666666667 0.5 0 0.16666666667 0.53333333333 0 
0.16666666667 0.56666666667 0 0.16666666667 0.6 0 0.16666666667 0.63333333333 0 
0.16666666667 0.66666666667 0 0.16666666667 0.7 0 0.16666666667 0.73333333333 0 
0.16666666667 0.76666666667 0 0.16666666667 0.8 0 0.16666666667 0.83333333333 0 
0.16666666667 0.86666666667 0 0.16666666667 0.9 0 0.16666666667 0.93333333333 0 
0.16666666667 0.96666666667 0 0.2 0.033333333333 0 0.2 0.066666666667 0 
0.2 0.1 0 0.2 0.13333333333 0 0.2 0.16666666667 0 
0.2 0.2 0 0.2 0.23333333333 0 0.2 0.26666666667 0 
0.2 0.3 0 0.2 0.33333333333 0 0.2 0.36666666667 0 
0.2 0.4 0 0.2 0.43333333333 0 0.2 0.46666666667 0 
0.2 0.5 0 0.2 0.53333333333 0 0.2 0.56666666667 0 
0.2 0.6 0 0.2 0.63333333333 0 0.2 0.66666666667 0 
0.2 0.7 0 0.2 0.73333333333 0 0.2 0.76666666667 0 
0.2 0.8 0 0.2 0.83333333333 0 0.2 0.86666666667 0 
0.2 0.9 0 0.2 0.93333333333 0 0.2 0.96666666667 0 
0.23333333333 0.033333333333 0 0.23333333333 0.066666666667 0 0.23333333333 0.1 0 
0.23333333333 0.13333333333 0 0.23333333333 0.16666666667 0 0.23333333333 0.2 0 
0.23333333333 0.23333333333 0 0.23333333333 0.26666666667 0 0.23333333333 0.3 0 
0.23333333333 0.33333333333 0 0.23333333333 0.36666666667 0 0.23333333333 0.4 0 
0.23333333333 0.43333333333 0 0.23333333333 0.46666666667 0 0.23333333333 0.5 0 
0.23333333333 0.53333333333 0 0.23333333333 0.56666666667 0 0.23333333333 0.6 0 
0.23333333333 0.63333333333 0 0.23333333333 0.66666666667 0 0.23333333333 0.7 0 
0.23333333333 0.73333333333 0 0.23333333333 0.76666666667 0 0.23333333333 0.8 0 
0.23333333333 0.83333333333 0 0.23333333333 0.86666666667 0 0.23333333333 0.9 0 
0.23333333333 0.93333333333 0 0.23333333333 0.96666666667 0 0.26666666667 0.033333333333 0 
0.26666666667 0.066666666667 0 0.26666666667 0.1 0 0.26666666667 0.13333333333 0 
0.26666666667 0.16666666667 0 0.26666666667 0.2 0 0.26666666667 0.23333333333 0 
0.26666666667 0.26666666667 0 0.26666666667 0.3 0 0.26666666667 0.33333333333 0 
0.26666666667 0.36666666667 0 0.26666666667 0.4 0 0.26666666667 0.43333333333 0 
0.26666666667 0.46666666667 0 0.26666666667 0.5 0 0.26666666667 0.53333333333 0 
0.26666666667 0.56666666667 0 0.26666666667 0.6 0 0.26666666667 0.63333333333 0 
0.26666666667 0.66666666667 0 0.26666666667 0.7 0 0.26666666667 0.73333333333 0 
0.26666666667 0.76666666667 0 0.26666666667 0.8 0 0.26666666667 0.83333333333 0 
0.26666666667 0.86666666667 0 0.26666666667 0.9 0 0.26666666667 0.93333333333 0 
0.26666666667 0.96666666667 0 0.3 0.033333333333 0 0.3 0.066666666667 0 
0.3 0.1 0 0.3 0.13333333333 0 0.3 0.16666666667 0 
0.3 0.2 0 0.3 0.23333333333 0 0.3 0.26666666667 0 
0.3 0.3 0 0.3 0.33333333333 0 0.3 0.36666666667 0 
0.3 0.4 0 0.3 0.43333333333 0 0.3 0.46666666667 0 
0.3 0.5 0 0.3 0.53333333333 0 0.3 0.56666666667 0 
0.3 0.6 0 0.3 0.63333333333 0 0.3 0.66666666667 0 
0.3 0.7 0 0.3 0.73333333333 0 0.3 0.76666666667 0 
0.3 0.8 0 0.3 0.83333333333 0 0.3 0.86666666667 0 
0.3 0.9 0 0.3 0.93333333333 0 0.3 0.96666666667 0 
0.33333333333 0.033333333333 0 0.33333333333 0.066666666667 0 0.33333333333 0.1 0 
0.33333333333 0.13333333333 0 0.33333333333 0.16666666667 0 0.33333333333 0.2 0 
0.33333333333 0.23333333333 0 0.33333333333 0.26666666667 0 0.33333333333 0.3 0 
0.33333333333 0.33333333333 0 0.33333333333 0.36666666667 0 0.33333333333 0.4 0 
0.33333333333 0.43333333333 0 0.33333333333 0.46666666667 0 0.33333333333 0.5 0 
0.33333333333 0.53333333333 0 0.33333333333 0.56666666667 0 0.33333333333 0.6 0 
0.33333333333 0.63333333333 0 0.33333333333 0.66666666667 0 0.33333333333 0.7 0 
0.33333333333 0.73333333333 0 0.33333333333 0.76666666667 0 0.33333333333 0.8 0 
0.33333333333 0.83333333333 0 0.33333333333 0.86666666667 0 0.33333333333 0.9 0 
0.33333333333 0.93333333333 0 0.33333333333 0.96666666667 0 0.36666666667 0.033333333333 0 
0.36666666667 0.066666666667 0 0.36666666667 0.1 0 0.36666666667 0.13333333333 0 
0.36666666667 0.16666666667 0 0.36666666667 0.2 0 0.36666666667 0.23333333333 0 
0.36666666667 0.26666666667 0 0.36666666667 0.3 0 0.36666666667 0.33333333333 0 
0.36666666667 0.36666666667 0 0.36666666667 0.4 0 0.36666666667 0.43333333333 0 
0.36666666667 0.46666666667 0 0.36666666667 0.5 0 0.36666666667 0.53333333333 0 
0.36666666667 0.56666666667 0 0.36666666667 0.6 0 0.36666666667 0.63333333333 0 
0.36666666667 0.66666666667 0 0.36666666667 0.7 0 0.36666666667 0.73333333333 0 
0.36666666667 0.76666666667 0 0.36666666667 0.8 0 0.36666666667 0.83333333333 0 
0.36666666667 0.86666666667 0 0.36666666667 0.9 0 0.36666666667 0.93333333333 0 
0.36666666667 0.96666666667 0 0.4 0.033333333333 0 0.4 0.066666666667 0 
0.4 0.1 0 0.4 0.13333333333 0 0.4 0.16666666667 0 
0.4 0.2 0 0.4 0.23333333333 0 0.4 0.26666666667 0 
0.4 0.3 0 0.4 0.33333333333 0 0.4 0.36666666667 0 
[...]
CELL_DATA 900
FIELD FieldData 3
radiation%20flux%20density 1 900 double
0 0 0 0 0 0 0 0 0 
0 0 0 0 0 0 0 0 0 
0 0 0 0 0 0 0 0 0 
0 0 0 0 1.2920582769e-18 1.5173366652e-17 -0.0021449287674 -0.0042059402421 -0.0030841718287 
0.0044803235476 0.049938409048 0.26585520455 1.034409901 3.3660562392 8.9980108048 19.947445936 29.901543992 18.78994973 
21.04385433 29.350897113 18.415267059 8.1868919906 3.0283451769 0.92154364866 0.23392759289 0.042644894566 0.0036046512419 
-0.0030736512683 -0.0042061076487 -0.0021449897545 -3.2778202497e-17 1.8565967187e-17 0 0 -0.0021624113487 -0.0065782732582 
-0.0026652190877 0.0038588395524 0.027829202687 0.33492342519 1.700608218 7.1408800349 26.604206813 88.338753127 245.76100864 
562.89747208 949.56870451 1190.0704402 1166.9379971 898.25210073 514.71254326 223.29353314 79.484215708 23.852134769 
6.3895574315 1.5152018307 0.2958571285 0.02241492639 0.0038884671431 -0.0026653184609 -0.0065782964658 -0.0021624137619 0 
0 -0.003084215884 -0.0013132449737 -0.00089333988112 0.091692912702 0.75592896315 4.289213984 19.6635436 78.949327393 
280.74190028 837.89170365 1947.4421985 3106.7319954 3885.0440973 4234.238333 4192.1723101 3765.6995824 2939.3050042 
1793.8029129 759.56033935 253.6748661 71.278453243 17.773428966 3.8801500166 0.68247913136 0.082340730461 -0.0008877616974 
-0.0013128786949 -0.003084190272 0 0 0.0023796431924 -0.0017486932382 0.088367603478 0.9388419338 6.2398405352 
32.213575788 140.34671216 526.03394631 1624.3028856 3613.9237964 5443.5443447 6666.3245556 7329.5897597 7600.6036209 
7549.6356506 7175.1749831 6421.8459121 5153.5873221 3359.124845 1481.8249582 478.82434026 127.89023299 29.464399369 
5.7343424971 0.86383359625 0.081085451692 -0.0017464298737 0.0023797312929 0 0 0.0063171860929 0.038747047353 
0.73359797972 6.1681497901 36.807811296 178.89229109 721.53993641 2330.9744826 4962.2413865 7249.2059609 8754.0926555 
9488.1423627 9846.1120024 9984.8764917 9932.5829041 9692.3985665 9232.5422378 8401.0968127 6862.0145302 4637.9894641 
2142.8952039 662.12406355 164.69380231 34.048902328 5.7425199744 0.68722794944 0.0363953014 0.0063173158851 0 
0 0.015820336503 0.30950025137 4.1148692148 31.507930015 177.38092817 787.35377662 2713.7382731 5733.146714 
8381.8379795 10096.721358 10861.565633 11132.408254 11230.256531 11267.120592 11219.096497 11096.567258 10893.695574 
10501.535592 9657.6347188 7934.7261957 5383.8085029 2514.8327758 728.07269621 164.74227734 29.495462657 3.8917320756 
0.2960436515 0.015651991136 0 0 0.066366719988 1.5635235911 18.69969885 136.21291615 710.01754479 
2696.8767476 5953.560278 8907.3924191 10858.038926 11745.034344 11710.197868 11520.314464 11346.041549 11224.002503 
11184.73777 11224.601411 11310.292808 11407.311921 11301.53642 10369.797551 8441.7802359 5608.8609897 2513.7407063 
661.93564547 127.85491749 17.74374312 1.5037650736 0.065273679089 0 0 0.24605267411 6.5371165343 
74.637740791 507.61485298 2279.8693018 5680.7101399 8872.8936512 11093.469166 12148.121032 11866.868012 11434.630477 
11058.734586 10799.773639 10651.805977 10617.052484 10692.94565 10871.272255 11157.520765 11502.508682 11656.600365 
10592.647538 8426.2928428 5369.3637361 2137.7632538 477.46255204 70.840851786 6.2860583652 0.24068880847 0 
0 0.90249626828 24.241261147 264.287696 1559.6048976 4855.5365254 8279.6913071 10769.087775 12089.143913 
11858.967502 11349.027428 10840.993089 10439.755235 10164.634906 10013.420971 9984.2887083 10074.883619 10281.813598 
10606.122758 11031.95015 11456.843358 11593.835754 10297.679712 7883.6190094 4606.282039 1472.1888791 250.85043203 
23.254698778 0.87780130359 0 0 2.916847568 80.408782935 785.8954167 3481.7881827 7095.7509916 
9947.4959265 11599.034435 11745.376152 11270.134951 10698.443783 10177.209295 9780.3713582 9512.9568701 9370.0496722 
9345.052754 9436.6685532 9647.6928027 9981.6196617 10428.551378 10926.031439 11333.666195 11145.304473 9535.9106877 
6781.1373971 3316.842807 747.30223171 77.005483796 2.8249916794 0 0 7.8603674749 224.6636829 
1837.9253141 5277.9594406 8571.3948873 10664.072727 11462.971701 11178.543489 10604.48849 10023.091616 9531.9365438 
9168.2999733 8934.9500208 8814.7214124 8793.7502653 8869.4185416 9054.5318108 9363.7151412 9794.1671681 10307.959463 
10819.929202 11071.478224 10272.856518 8244.1718708 5065.6766892 1757.214048 215.47764983 7.6089500665 0 
0 18.147881815 517.58971742 2986.0814804 6503.4203271 9230.3063024 10756.446926 10977.666142 10491.480142 
9920.7424529 9396.6083131 8976.7067639 8691.0051386 8527.8150738 8449.3072993 8430.1534149 8469.1305134 8589.9664214 
8828.7511785 9197.9577561 9665.3295418 10180.444869 10628.885819 10406.356701 8921.1829988 6276.4862985 2876.9175795 
497.52433357 17.580707872 0 0 31.856008569 913.55481078 3793.2282407 7098.8297659 9330.2807109 
10325.135587 10196.159319 9709.7094069 9258.5177532 8865.7954847 8583.222065 8407.2895883 8299.6177379 8270.2383619 
8252.0221498 8247.0635519 8318.2918617 8452.0763592 8690.3843692 9037.0885198 9442.3840145 9893.2240698 10015.708748 
9045.758211 6882.1774394 3676.451236 884.16482373 31.080704532 0 0 31.329240279 1230.1808015 
4126.841116 6983.8666592 8774.7351356 9339.3832983 9142.0284838 8833.6245623 8613.4777561 8467.3941496 8433.3332314 
8369.0668261 8138.9268236 8171.6940729 8154.947026 8097.5300905 8289.309607 8310.3315098 8307.8202055 8422.366488 
8607.0729569 8886.8393124 9076.6280756 8528.9632011 6791.5368397 4015.2024134 1197.1701339 30.883218097 0 
0 43.869293793 1262.5023456 3792.9628793 6081.2393154 7424.1859997 7862.6020948 7921.2530305 7864.4672479 
7959.8535198 8339.0254363 8893.3191957 8912.0695137 8116.7579459 7354.6434009 7342.4944834 8071.6039356 8826.3844365 
8770.7406948 8186.9222178 7788.1966265 7673.3032086 7714.07478 7654.47406 7229.2015306 5926.5016553 3700.9863191 
1233.8148111 43.203325952 0 0 70.647578564 935.99491488 2647.4954548 4256.9091023 5514.6790309 
6479.147483 6707.639213 6863.0233838 7499.9044607 9294.9170678 11228.041607 12619.629132 12045.605082 5228.6807649 
5199.3038889 11952.00811 12479.74217 11108.01507 9136.6617701 7322.7405904 6699.2207678 6553.3711085 6327.8860176 
5380.2619434 4154.535255 2587.6761296 917.49837834 69.320315815 0 0 1.962338201 118.95051949 
788.45721693 2439.3578634 7686.0074538 15333.748338 19844.227644 17679.191429 17695.926684 38867.891837 69590.478723 
86765.03715 78267.005026 51646.267372 51563.193148 77747.919735 85875.520991 68618.2238 38052.200066 16928.90697 
17315.853452 19478.26468 15021.699786 7500.9342528 2384.4101603 773.12750221 116.729579 1.9331890819 0 
0 0.28391547337 -3.2966532845 -75.422975293 -316.6370269 -407.70296311 568.82354439 3488.1633685 6352.0342679 
8415.7036825 13002.586882 32830.017186 87297.767314 126935.28053 121662.54816 122102.3 126005.19701 86375.572938 
31947.700823 12824.114416 8301.1344366 6265.8401722 3440.2644862 563.06228267 -396.40110932 -309.81063195 -73.941715032 
-3.2274758089 0.28245081462 0 0 0.094479392659 -0.27553788281 -0.14135280831 -0.24624090791 -0.28419856571 
-81.747233143 -1078.323663 -2868.815503 -3936.398373 -7711.1061493 -9186.0545221 -6893.7053954 38677.459676 57920.335862 
57772.77758 38654.151098 -6823.1346574 -8948.8154486 -7582.1726221 -3846.7051448 -2823.6077919 -1067.1201386 -81.513872268 
-0.28408638825 -0.24529960488 -0.14084727404 -0.27558993277 0.095084332309 0 0 -0.12047070378 -0.077313572584 
-0.11535811937 -0.090025913893 -0.07602945271 -0.10724817266 -0.14878697744 -0.15840701289 -0.18716895143 -0.30277361347 -0.19832355757 
0.22907502621 -14399.00767 -23459.646225 -23560.893339 -14508.1014 0.21827877808 -0.19997974469 -0.30239916289 -0.18839038233 
-0.1575323812 -0.14894121665 -0.10705346646 -0.076012901226 -0.089754467647 -0.11547532768 -0.077298518828 -0.12042874703 0 
0 -0.021623984466 0.038079503923 -0.014026682254 0.052621824061 0.058533994898 0.060758018373 0.1059973969 0.081479704336 
0.12791497934 0.054302717996 0.0028005158795 -0.097637297023 0.74386950306 1.3807264325 1.3961858163 0.73594231104 -0.11661698618 
0.00046149510841 0.056001415824 0.12689852421 0.081204620577 0.10612605997 0.061430381939 0.058507991601 0.052444157583 -0.014076617013 
0.03807957156 -0.021623466676 0 0 0.012051692859 8.0095162213e-17 0.0077356675928 -1.2291776427e-17 4.6395305725e-17 
0.026003119082 0.0089635386571 0.041561467622 0.014690787107 0.049274709757 0.014485936608 -0.021353918422 0.34775937591 0.68434062753 
0.6898332352 0.34514871756 -0.024395125381 0.012615423306 0.049124917391 0.014469601062 0.041218268906 0.0089575792177 0.0261277366 
-2.5981156645e-17 -3.9126410518e-17 0.0077356139122 8.0001433548e-17 0.012051681681 0 0 -1.026674358e-16 -3.4462894795e-17 
-2.4662752367e-17 -4.2547487962e-18 -6.9037369995e-17 1.3077266868e-16 -6.5451768269e-17 -5.7577075862e-17 1.3511288296e-18 1.2769755135e-16 0.028225954325 
0.0080357085577 -0.16736696114 -0.3564416229 -0.36435254605 -0.16220624127 0.010352469601 0.027431142202 1.1470500466e-16 -1.051330643e-16 
-4.2548454606e-17 3.1418533278e-17 -6.0876460766e-18 1.1158774307e-18 1.8951121907e-17 -4.2930193388e-17 -9.9681127449e-17 2.0492420383e-16 0 
0 -5.7199885843e-17 -9.143435997e-17 1.1880828004e-16 4.1965808768e-17 -1.7389899063e-17 -9.4127016693e-17 5.8109901041e-17 -7.3705296501e-17 
1.7750299193e-16 3.0150630936e-17 0.0019491788361 -0.0043353744039 -0.095186434805 -0.035153841835 -0.033427112631 -0.095730796969 -0.0039091643014 
0.0019895857396 -1.0529539519e-17 -8.1260737872e-17 2.6852303313e-17 -6.5677918044e-17 2.0896407669e-17 1.4817871814e-16 -1.0304568365e-16 3.7485659453e-17 
-3.296104787e-17 -2.0904948328e-17 0 0 3.3224355162e-17 4.273966137e-17 -6.0343391965e-17 6.158981348e-18 3.4064747688e-17 
-9.464170475e-17 3.3408575989e-17 7.0474371564e-17 -9.5963754133e-18 -1.8584423995e-16 4.5211884344e-17 -0.0010677247402 0.02265753649 0.0084373928666 
0.0082720532423 0.021625935893 -0.0010618306822 -7.6486614075e-17 -1.5665969785e-18 1.3393630644e-16 -9.9944762351e-19 1.4562345432e-17 -3.4072532704e-17 
-1.1666705847e-16 7.669595376e-17 4.203650988e-17 5.1197711912e-17 -1.2573820129e-16 0 0 5.9742536189e-18 -6.2493408674e-17 
-1.1573420656e-17 5.2628180014e-17 -3.6939182027e-17 7.9162911066e-17 -6.2975648021e-17 1.693518313e-17 -2.6500949851e-17 5.2442037106e-18 4.9248818507e-17 
-5.16310358e-17 8.2851456017e-17 8.2164896539e-17 -2.1198098984e-16 8.4076947329e-17 4.9415758109e-17 -5.7075265569e-17 2.6831589436e-17 -8.2835691191e-18 
1.7627418471e-18 1.1657111579e-17 -4.1467081933e-18 -7.7532178903e-17 8.8053971459e-17 -9.0478009614e-17 4.1794236366e-18 3.0554687333e-17 0 
0 1.2149953931e-16 -1.4407507823e-16 9.2165504659e-17 1.0515838995e-16 -1.2211026894e-16 1.2120883575e-16 -1.2899103136e-16 -3.1533975455e-17 
6.2194120278e-17 -2.8117932446e-17 -7.0350401703e-18 -3.6969141781e-17 2.4615371971e-17 2.7264771662e-17 -8.908571469e-17 1.074903733e-17 3.928634546e-17 
3.4379315087e-17 1.3084047411e-16 -6.5840553372e-17 -5.8601780587e-17 1.1567073208e-17 -2.6914745778e-17 5.3961396458e-17 -3.5871881684e-17 -9.1611504692e-17 
5.5113442984e-17 -9.1383272112e-18 0 0 1.0490604446e-16 5.3802039703e-17 -6.8799101009e-17 -6.822285146e-17 7.0284694268e-17 
-4.8288858564e-17 -9.0270072937e-18 1.09463065e-16 -7.7624014637e-17 -2.1731551619e-17 4.953664936e-17 4.8709550222e-17 -5.071204903e-17 -1.6946406191e-17 
8.5240946359e-17 2.838603361e-17 -7.4242605883e-17 -1.9051134437e-17 -1.4822423635e-17 1.3324592659e-18 4.678804323e-17 -1.6586692486e-17 -7.6724647064e-19 
4.3184813314e-17 1.1581560371e-17 5.3763131813e-18 1.7415440374e-17 -2.7432115607e-17 0 0 0 0 
0 0 0 0 0 0 0 0 0 
0 0 0 0 0 0 0 0 0 
0 0 0 0 0 0 0 0 0 

dose 1 900 double
0 0 0 0 0 0 0 0 0 
0 0 0 0 0 0 0 0 0 
0 0 0 0 0 0 0 0 0 
0 0 0 0 2.0481482877e-19 2.405255667e-18 -4.4677926418e-05 -0.00011628715238 -8.4703206904e-05 
0.0001051506984 0.0013237679523 0.0073811815987 0.029801570009 0.097793592093 0.26165898371 0.56799634409 0.84348112408 0.51812953052 
0.59542999699 0.82584757632 0.52654019644 0.23907245034 0.088112008921 0.026563280637 0.0064666719965 0.0011248095997 8.2979635083e-05 
-8.418537391e-05 -0.00011629283676 -4.4679196753e-05 -5.1959435977e-18 3.0821124688e-18 0 0 -4.5042080927e-05 -0.00016792470574 
-0.00017150635161 1.4548738552e-05 0.00062753251893 0.009768677005 0.053645441003 0.23297031799 0.88656991221 3.0156331565 8.7460608836 
20.605565194 36.675625403 47.232885721 46.216839128 34.520323189 18.84848415 7.9308524634 2.7107782994 0.79441355214 
0.20816323791 0.047649497874 0.0085720963243 0.00048455787868 1.5448694174e-05 -0.00017151061558 -0.00016792511863 -4.5042131193e-05 0 
0 -0.00018436209887 -0.00017309475895 -0.00015452271235 0.0024613089474 0.023557346173 0.14567058787 0.69751387302 2.8987389327 
10.722101853 34.172745863 88.234123973 164.10657263 229.96662328 264.04846382 260.4504404 220.86482852 153.48592428 
80.673418793 30.913584627 9.6714030335 2.6136449358 0.62943389173 0.13143179815 0.021157891026 0.0022037415502 -0.00015432141554 
-0.00017308266783 -0.00018436141165 0 0 -7.5913052284e-05 -0.00019684697298 0.0022569233549 0.03025275813 0.21852185918 
1.1927579125 5.4482573986 21.546298573 72.395557496 189.34979575 350.27253215 505.40295448 618.45788564 673.29345072 
666.11312471 599.49944031 480.64718355 327.51983934 174.18137931 65.850383159 19.580810976 4.960435941 1.0901417106 
0.20051843444 0.027770846452 0.0020563637424 -0.00019673625145 -7.5905545372e-05 0 0 0.00010898355552 0.00083898339601 
0.023063183971 0.21600901776 1.3792969148 7.1090700376 30.624814291 109.31056736 287.07473506 528.89653851 776.99521352 
983.17840587 1128.8312421 1201.6561336 1190.1766256 1099.3770961 943.44246969 735.74112576 495.06448435 265.68868397 
100.14878598 28.077858297 6.5437642855 1.2762207957 0.20106868671 0.021578898279 0.00077687394426 0.00010899127072 0 
0 0.00052460926814 0.0090192187254 0.13945223538 1.1651758315 7.043894189 33.755661058 130.43860049 351.67520522 
658.07535542 987.95067232 1288.064153 1532.3143259 1711.4287956 1809.660449 1792.3798271 1669.8917288 1475.9101003 
1226.992404 933.35413941 617.23120854 327.49519128 120.47359957 31.212225364 6.5473829191 1.0920004812 0.13200513529 
0.0086234544862 0.00052051457616 0 0 0.0022147328855 0.049138697712 0.66122726794 5.2770727773 30.10261401 
129.52862995 371.88885371 723.03418643 1119.7037378 1506.045986 1828.5253362 2089.8982856 2296.9272663 2426.8005069 
2401.7078863 2240.2439935 2015.9907057 1749.3590569 1429.7219381 1058.1023167 680.1423643 348.11302382 120.46908329 
28.084230947 4.9620622762 0.62875060247 0.047350050851 0.0021870546906 0 0 0.0075701314817 0.21221287102 
2.7299234028 20.736701553 106.73072119 347.60913438 719.37704934 1161.1976604 1614.6963572 2001.1961386 2325.9043189 
2609.2918036 2857.8405245 3052.0539101 3013.7339925 2779.625212 2512.4750695 2226.7354231 1908.0827935 1532.4996731 
1099.6448373 679.28119241 326.98375542 100.02029054 19.537594814 2.5975587623 0.20463970622 0.0074346467896 0 
0 0.02668599362 0.80336368098 10.048860171 69.306674735 279.57119241 647.86968393 1108.3798352 1605.665848 
2049.4260481 2435.5310779 2785.6184049 3118.4639554 3442.4480528 3757.7228555 3699.768715 3333.1416498 2995.3639505 
2667.2628252 2327.291426 1954.5380083 1527.7269522 1053.462068 614.40395314 264.38633117 65.470360411 9.5577936439 
0.77258165088 0.026042341877 0 0 0.085056000168 2.7260867179 31.89868991 181.11201128 514.42106125 
968.49113804 1482.383926 1977.31425 2419.073427 2827.5101151 3229.6152836 3648.4897026 4111.8840361 4666.2352872 
4579.4445712 3959.5656518 3497.8403772 3094.5680436 2708.5681232 2316.1040768 1891.9037226 1416.5374604 924.52375913 
490.22310766 172.20860924 30.372581846 2.6152757936 0.082566236128 0 0 0.22611752695 7.929573379 
82.501493308 336.06368912 754.46590955 1256.8314279 1787.1982021 2279.2927169 2739.993697 3197.4835602 3685.4159123 
4250.3975059 4942.5248171 5997.5200624 5873.3631723 4739.0761494 4073.7704698 3538.3137064 3073.0439642 2633.9423512 
2190.6273366 1717.7164878 1206.6562674 723.63557 321.83815249 78.83832542 7.6115185121 0.21922164274 0 
0 0.50934711312 18.797343316 155.27094493 486.92467994 951.10204281 1482.8175152 2017.6364032 2520.7837307 
3023.1297811 3560.9811283 4191.2103998 4995.5050891 6092.1212296 8234.5643496 8060.618445 5836.1033699 4799.5806336 
4038.9654539 3436.6568568 2918.4764589 2433.6926443 1947.9370141 1431.1359433 917.3056216 469.14234383 149.39543309 
18.084354907 0.49387097238 0 0 0.88513092276 34.841807506 221.46302287 595.68587984 1080.0708384 
1621.9598669 2164.487207 2698.2826873 3271.2306386 3940.4184488 4789.0094795 5981.5002485 7864.6503746 12273.182522 
12048.962079 7553.9747587 5777.7092391 4639.0117428 3821.2348296 3172.6522139 2616.2004366 2098.1134476 1572.2332688 
1046.4100691 577.05482618 214.46269921 33.711203517 0.8632174223 0 0 0.88758170648 48.8099122 
258.677631 635.49321441 1112.2853581 1639.6397123 2191.908677 2783.3595841 3482.4844384 4394.4435215 5732.928063 
7981.3839735 12082.080513 20297.277914 20055.530551 11740.110403 7780.3304245 5593.0728156 4285.1463723 3393.218693 
2709.4249381 2132.2805164 1594.9881906 1081.7137565 618.16499421 251.67790054 47.501095094 0.87570817622 0 
0 1.0111530481 52.242103666 248.41622449 583.84140024 1008.0014746 1488.3328314 2022.8947465 2614.5244951 
3338.2317355 4303.7400833 5716.5065739 7998.3391987 12043.757165 20209.579715 20080.769622 11844.493363 7866.2446592 
5615.5899145 4220.9031731 3268.0366834 2555.1392404 1974.7279451 1452.3909832 983.23802786 569.62406351 242.54142623 
51.071348037 0.99583619944 0 0 2.0864817306 41.419189276 185.1259691 437.71375676 778.55896548 
1192.4018852 1649.1317604 2161.5327798 2798.9642392 3675.8358474 4867.9291935 6210.7915075 8015.989099 11759.745713 
11725.506202 7947.9160418 6141.1038897 4803.4481467 3616.0984476 2746.8538767 2118.7565306 1615.0511902 1166.7848829 
761.23432412 428.00540703 181.18496483 40.622956391 2.0462330104 0 0 0.02403695525 0.7723930624 
7.0316223553 28.397362271 101.66126487 260.76230669 433.67240072 545.65467628 673.38075674 1262.9242243 2538.259315 
4033.6826616 5377.7854683 6106.5692165 6095.6854995 5336.5310841 3990.6665226 2501.6597936 1235.2698639 653.60116732 
535.43609139 425.61570317 255.4679928 99.303522092 27.792743591 6.8970442322 0.75830535235 0.023936851818 0 
0 0.010668803626 -0.0050116490457 -0.51256576204 -2.9855988988 -6.5205482306 -1.4903457157 30.922659199 77.046164937 
123.18875474 244.27065575 552.8930033 2204.7131171 4162.6416285 5273.0475325 5269.6168207 4138.725951 2180.5292098 
536.23694542 240.60163188 122.45628883 76.475750461 30.722208997 -1.3574664001 -6.3532991591 -2.9233487317 -0.50232350184 
-0.0046577622176 0.01066015195 0 0 0.00067559856639 -0.0052965704923 -0.0028807207718 -0.0060852137917 -0.0070022998579 
-0.47715248322 -9.3682865813 -32.054856844 -53.403905679 -118.23018441 -152.72355419 -274.2566674 242.28256656 394.76422477 
394.96253447 245.38007649 -270.14381523 -148.65928217 -116.29128064 -52.745302387 -31.646262204 -9.2956211694 -0.47753003878 
-0.0069974262243 -0.0060659178725 -0.0028710920673 -0.0052940107184 0.00067776732543 0 0 -0.0025624732598 -0.0018515626486 
-0.0027028675625 -0.002202800236 -0.0021911367512 -0.0023087007926 -0.0027672239377 -0.0028102186573 -0.0035155512245 -0.005723661802 -0.0081284112545 
0.0083350050615 -155.20522212 -350.47312185 -351.35437656 -156.64711853 0.0080632832513 -0.008165486492 -0.0057388843963 -0.0035481365113 
-0.002786825864 -0.002774365754 -0.002313282742 -0.0021902419239 -0.002199245741 -0.0027041947348 -0.0018509784701 -0.0025622122299 0 
0 -0.00018490854955 0.00084620949587 4.5612238765e-05 0.00096984178312 0.001064346091 0.0011382136407 0.0019085242546 0.0015299865011 
0.0025095648793 0.0012860766327 0.00024877528391 -0.0011004854571 0.025328307409 0.053007822203 0.053265236167 0.024975812028 -0.0013933426987 
0.00023527476821 0.001304434413 0.0024898100538 0.0015226567348 0.0019106734122 0.0011425012514 0.0010639443627 0.00096739551133 4.5273638673e-05 