# vtk DataFile Version 5.1
vtk output
ASCII
DATASET UNSTRUCTURED_GRID
POINTS 565 double
0 0 0 7 0 0 0 7 0 
7 7 0 1 1 0 2 1 0 
2 2 0 1 2 0 5 2 0 
5 1 0 6 1 0 6 2 0 
3 2 0 3 1 0 4 1 0 
4 2 0 5 3 0 6 3 0 
6 4 0 5 4 0 5 5 0 
4 5 0 4 4 0 3 4 0 
3 5 0 2 5 0 2 4 0 
1 4 0 1 3 0 2 3 0 
2 6 0 1 6 0 1 5 0 
6 5 0 6 6 0 5 6 0 
3 3 0 4 3 0 0.38888888889 0 0 
0.77777777778 0 0 1.1666666667 0 0 1.5555555556 0 0 
1.9444444444 0 0 2.3333333333 0 0 2.7222222222 0 0 
3.1111111111 0 0 3.5 0 0 3.8888888889 0 0 
4.2777777778 0 0 4.6666666667 0 0 5.0555555556 0 0 
5.4444444444 0 0 5.8333333333 0 0 6.2222222222 0 0 
6.6111111111 0 0 0 6.6111111111 0 0 6.2222222222 0 
0 5.8333333333 0 0 5.4444444444 0 0 5.0555555556 0 
0 4.6666666667 0 0 4.2777777778 0 0 3.8888888889 0 
0 3.5 0 0 3.1111111111 0 0 2.7222222222 0 
0 2.3333333333 0 0 1.9444444444 0 0 1.5555555556 0 
0 1.1666666667 0 0 0.77777777778 0 0 0.38888888889 0 
7 0.38888888889 0 7 0.77777777778 0 7 1.1666666667 0 
7 1.5555555556 0 7 1.9444444444 0 7 2.3333333333 0 
7 2.7222222222 0 7 3.1111111111 0 7 3.5 0 
7 3.8888888889 0 7 4.2777777778 0 7 4.6666666667 0 
7 5.0555555556 0 7 5.4444444444 0 7 5.8333333333 0 
7 6.2222222222 0 7 6.6111111111 0 6.6111111111 7 0 
6.2222222222 7 0 5.8333333333 7 0 5.4444444444 7 0 
5.0555555556 7 0 4.6666666667 7 0 4.2777777778 7 0 
3.8888888889 7 0 3.5 7 0 3.1111111111 7 0 
2.7222222222 7 0 2.3333333333 7 0 1.9444444444 7 0 
1.5555555556 7 0 1.1666666667 7 0 0.77777777778 7 0 
0.38888888889 7 0 1.3333333333 1 0 1.6666666667 1 0 
2 1.3333333333 0 2 1.6666666667 0 1.6666666667 2 0 
1.3333333333 2 0 1 1.6666666667 0 1 1.3333333333 0 
5 1.6666666667 0 5 1.3333333333 0 5.3333333333 1 0 
5.6666666667 1 0 6 1.3333333333 0 6 1.6666666667 0 
5.6666666667 2 0 5.3333333333 2 0 2.3333333333 2 0 
2.6666666667 2 0 3 1.6666666667 0 3 1.3333333333 0 
3.3333333333 1 0 3.6666666667 1 0 4 1.3333333333 0 
4 1.6666666667 0 4.3333333333 2 0 4.6666666667 2 0 
5 2.3333333333 0 5 2.6666666667 0 5.3333333333 3 0 
5.6666666667 3 0 6 3.3333333333 0 6 3.6666666667 0 
5.6666666667 4 0 5.3333333333 4 0 5 4.3333333333 0 
5 4.6666666667 0 4.6666666667 5 0 4.3333333333 5 0 
4 4.6666666667 0 4 4.3333333333 0 3.6666666667 4 0 
3.3333333333 4 0 3 4.3333333333 0 3 4.6666666667 0 
2.6666666667 5 0 2.3333333333 5 0 2 4.6666666667 0 
2 4.3333333333 0 1.6666666667 4 0 1.3333333333 4 0 
1 3.6666666667 0 1 3.3333333333 0 1.3333333333 3 0 
1.6666666667 3 0 2 2.6666666667 0 2 2.3333333333 0 
2 5.3333333333 0 2 5.6666666667 0 1.6666666667 6 0 
1.3333333333 6 0 1 5.6666666667 0 1 5.3333333333 0 
1.3333333333 5 0 1.6666666667 5 0 5.3333333333 5 0 
5.6666666667 5 0 6 5.3333333333 0 6 5.6666666667 0 
5.6666666667 6 0 5.3333333333 6 0 5 5.6666666667 0 
5 5.3333333333 0 3 2.3333333333 0 3 2.6666666667 0 
3.3333333333 3 0 3.6666666667 3 0 4 2.6666666667 0 
4 2.3333333333 0 3.6666666667 2 0 3.3333333333 2 0 
2 3.3333333333 0 2 3.6666666667 0 2.3333333333 4 0 
2.6666666667 4 0 3 3.6666666667 0 3 3.3333333333 0 
2.6666666667 3 0 2.3333333333 3 0 4 3.3333333333 0 
4 3.6666666667 0 4.3333333333 4 0 4.6666666667 4 0 
5 3.6666666667 0 5 3.3333333333 0 4.6666666667 3 0 
4.3333333333 3 0 1.2951917063 1.5 0 1.7050506247 1.5 0 
1.5000403885 1.2474399183 0 1.5000403885 1.7525600817 0 1.7576802451 1.7576802451 0 
1.2423197549 1.2423197549 0 1.7576802451 1.2423197549 0 1.2423197549 1.7576802451 0 
1.5 3.7048082937 0 1.5 3.2949493753 0 1.2474399183 3.4999596115 0 
1.7525600817 3.4999596115 0 1.2423197549 3.7576802451 0 1.7576802451 3.2423197549 0 
1.7576802451 3.7576802451 0 1.2423197549 3.2423197549 0 1.7048082937 5.5 0 
1.2949493753 5.5 0 1.4999596115 5.2474399183 0 1.4999596115 5.7525600817 0 
1.2423197549 5.2423197549 0 1.7576802451 5.7576802451 0 1.7576802451 5.2423197549 0 
1.2423197549 5.7576802451 0 2.5 2.297798335 0 2.5 2.7026766338 0 
2.2474399183 2.5000791615 0 2.7525600817 2.5000791615 0 2.2423197549 2.7576802451 0 
2.7576802451 2.7576802451 0 2.2423197549 2.2423197549 0 2.7576802451 2.2423197549 0 
2.5 4.6985523849 0 2.5 4.2971333787 0 2.2474399183 4.4992809606 0 
2.7525600817 4.4992809606 0 2.7576802451 4.2423197549 0 2.2423197549 4.7576802451 0 
2.7576802451 4.7576802451 0 2.2423197549 4.2423197549 0 3.5 1.7048082937 0 
3.5 1.2949493753 0 3.2474399183 1.4999596115 0 3.7525600817 1.4999596115 0 
3.2423197549 1.2423197549 0 3.2423197549 1.7576802451 0 3.7576802451 1.2423197549 0 
3.7576802451 1.7576802451 0 3.5 3.2951917063 0 3.5 3.7050506247 0 
3.2474399183 3.5000403885 0 3.7525600817 3.5000403885 0 3.2423197549 3.2423197549 0 
3.7576802451 3.7576802451 0 3.2423197549 3.7576802451 0 3.7576802451 3.2423197549 0 
4.5 2.2951917063 0 4.5 2.7050506247 0 4.2474399183 2.5000403885 0 
4.7525600817 2.5000403885 0 4.7576802451 2.2423197549 0 4.2423197549 2.2423197549 0 
4.7576802451 2.7576802451 0 4.2423197549 2.7576802451 0 4.6985523849 4.5 0 
4.2971333787 4.5 0 4.4992809606 4.7525600817 0 4.4992809606 4.2474399183 0 
4.7576802451 4.7576802451 0 4.2423197549 4.7576802451 0 4.7576802451 4.2423197549 0 
4.2423197549 4.2423197549 0 5.2951917063 1.5 0 5.7050506247 1.5 0 
5.5000403885 1.2474399183 0 5.5000403885 1.7525600817 0 5.2423197549 1.7576802451 0 
5.7576802451 1.2423197549 0 5.2423197549 1.2423197549 0 5.7576802451 1.7576802451 0 
5.5 3.2951917063 0 5.5 3.7050506247 0 5.7525600817 3.5000403885 0 
5.2474399183 3.5000403885 0 5.7576802451 3.2423197549 0 5.2423197549 3.7576802451 0 
5.7576802451 3.7576802451 0 5.2423197549 3.2423197549 0 5.6985523849 5.5 0 
5.2971333787 5.5 0 5.4992809606 5.2474399183 0 5.4992809606 5.7525600817 0 
5.2423197549 5.2423197549 0 5.7576802451 5.2423197549 0 5.7576802451 5.7576802451 0 
5.2423197549 5.7576802451 0 3.7485855544 6.6942501976 0 2.2872656985 5.8378913721 0 
4.7119339728 5.8373697827 0 2.8759754619 6.5951459244 0 2.8162186717 5.3084308736 0 
3.186129153 5.2921568433 0 2.9979032054 5.5850721589 0 3.3402908331 5.6008010525 0 
4.1834772538 5.3076746294 0 4.7107049802 6.1677403394 0 4.4211946596 6.0016838939 0 
0.27665997492 2.5838218441 0 6.7053237048 2.42793991 0 0.29467629521 4.57206009 0 
4.4161781559 0.27665997492 0 6.663212343 4.4722222222 0 2.42793991 0.29467629521 0 
2.2918240758 6.1960938346 0 3.1734987121 5.8836777691 0 3.5136330362 5.8882723168 0 
6.6167962299 6.3741865029 0 6.3741865029 0.38320377014 0 0.38357251857 6.3760800284 0 
0.38320377014 0.6258134971 0 5.5 4.7113248654 0 2.5 1.6872666359 0 
5.8514999722 2.3378951476 0 3.6772759043 4.8414452564 0 4.3378951476 1.1485000278 0 
1.1485000278 4.6621048524 0 1.1485000278 2.6621048524 0 2.3378951476 1.1485000278 0 
5.1103344757 6.2741611014 0 0.71132486541 5.1666666667 0 6.2886751346 1.8333333333 0 
1.8333333333 0.71132486541 0 1.8899895413 6.2784546756 0 5.1666666667 0.71132486541 0 
6.2886751346 5.1666666667 0 0.71132486541 1.8333333333 0 3.8333333333 0.71132486541 0 
6.2886751346 3.8333333333 0 0.71132486541 3.1666666667 0 6.2939163714 3.1693263045 0 
3.1693263045 0.70608362863 0 0.70608362863 3.8306736955 0 6.3007298331 5.8302758913 0 
5.8302758913 0.69927016685 0 0.68791714935 5.8284678454 0 0.69927016685 1.1697241087 0 
1.1703128001 0.69343635082 0 1.1703128001 6.3065636492 0 5.8296871999 6.3065636492 0 
6.3065636492 1.1703128001 0 4.4127643558 6.3484393703 0 4.0729408297 6.1740044985 0 
5.3127333641 2.5 0 4.5 1.6872666359 0 1.6872666359 4.5 0 
1.6872666359 2.5 0 3.5 4.3127333641 0 2.5448645473 5.9628839255 0 
5.8438027206 4.298242306 0 3.341591884 6.1882059124 0 3.8079455038 5.2924572466 0 
4.0000028322 5.5805606494 0 0.80895730489 4.7699760833 0 2.2300239167 0.80895730489 0 
6.1910426951 2.2300239167 0 0.81140688702 2.7706116978 0 4.2293883022 0.81140688702 0 
6.1530370913 4.2585353481 0 2.1540193915 6.522253769 0 4.8162223334 6.4882902395 0 
4.8222111689 0.70955465736 0 6.2921473568 4.827319268 0 0.70955465736 2.1777888311 0 
6.3389745166 0.79855227087 0 0.79855227087 0.66102548337 0 6.2014477291 6.3389745166 0 
0.79902978757 6.339184919 0 2.827319268 0.70785264318 0 6.2921473568 2.827319268 0 
0.70785264318 4.172680732 0 2.984286409 6.1874521762 0 2.6004296679 5.6380503952 0 
4.3907348225 5.6293300039 0 2.4954354469 6.464014563 0 0.49511543862 4.857146981 0 
2.142853019 0.49511543862 0 6.5048845614 2.142853019 0 5.8109523545 2.6966506386 0 
3.3095189699 4.8399570492 0 1.1890476455 2.3033493614 0 2.6966506386 1.1890476455 0 
4.6966506386 1.1890476455 0 1.1890476455 4.3033493614 0 3.5 5.1333820886 0 
6.0092788027 4.6114103291 0 4.1180693191 6.5205687606 0 1.3559386168 0.35702514778 0 
5.6476385745 0.34601141574 0 0.34413339402 5.6496515319 0 0.34601141574 1.3523614255 0 
6.6539885843 5.6476385745 0 5.6440613832 6.6429748522 0 1.3559386168 6.6429748522 0 
6.6429748522 1.3559386168 0 3.691651827 6.1657024845 0 0.38131474442 4.0107495165 0 
0.35859789556 3.6542298248 0 2.9892504835 0.38131474442 0 3.3457701752 0.35859789556 0 
6.6186852556 2.9892504835 0 6.6414021044 3.3457701752 0 2.485711609 5.2962123554 0 
4.5142724884 5.301683263 0 4.1386885406 0.49621789734 0 0.49621789734 2.8613114594 0 
6.4653693356 4.1675183045 0 1.7815734083 0.35375209722 0 0.35191041811 5.2192251844 0 
5.2045327576 6.6420335985 0 5.2715908019 0.34496760504 0 0.34496760504 1.7284091981 0 
1.7912623484 6.6472833477 0 6.6462479028 1.7815734083 0 6.655032395 5.2715908019 0 
6.0018111307 0.33962155199 0 6.660378448 6.0018111307 0 0.33962155199 0.99818886931 0 
0.33789389548 6.0020556849 0 4.8431738401 0.36643899333 0 0.36643899333 2.1568261599 0 
6.6695014189 4.8502181121 0 3.3194031049 6.6880752893 0 0.98302760942 6.6572105079 0 
6.0170519767 6.6571754409 0 6.6571754409 0.9829480233 0 0.9829480233 0.34282455914 0 
0.60283050123 6.6812981717 0 6.6809416725 0.60267619269 0 0.60267619269 0.31905832746 0 
6.3973238073 6.6809416725 0 5.508864916 4.3176715804 0 3.7798225257 0.35426223421 0 
0.35426223421 3.2201774743 0 6.6429380014 3.7819238204 0 0.71132486541 5.5 0 
5.4647693027 6.3109555335 0 1.5 0.71132486541 0 3.5 0.71132486541 0 
0.71132486541 3.5 0 6.2886751346 1.5 0 6.2886751346 3.5 0 
[...]
CELL_DATA 1056
FIELD FieldData 1
radiation%20flux%20density 1 1056 double
7.4699452581e-08 7.4699452581e-08 9.3556722866e-06 9.4129888851e-06 1.0601792961e-05 1.0648506575e-05 1.1863527148e-05 1.1839024739e-05 1.0863906171e-05 
1.1746982991e-05 1.1772200774e-05 1.1826861157e-05 1.078436938e-05 1.1857247471e-05 3.7160895257e-06 3.7160886308e-06 3.7164600036e-06 3.7164568374e-06 
8.3477388309e-06 8.347734371e-06 8.3445203051e-06 8.3445186978e-06 3.6944401273e-06 3.6942456746e-06 3.694259059e-06 3.6944317336e-06 7.4699452581e-08 
7.4699452581e-08 9.3285414747e-06 9.3556722866e-06 1.0648513053e-05 1.0545750962e-05 1.1826861888e-05 1.0784029927e-05 1.1839024034e-05 1.0852690813e-05 
1.1777437064e-05 1.1838006392e-05 1.0784369515e-05 1.0852753678e-05 3.7164579115e-06 3.7160882248e-06 3.7164600036e-06 3.716090445e-06 8.347735034e-06 
8.3445166674e-06 8.3477388309e-06 8.3445202154e-06 3.6942563239e-06 3.6942529627e-06 3.6944415477e-06 3.6944332251e-06 7.4699452581e-08 7.4699452581e-08 
9.3295551294e-06 9.3731530997e-06 1.0627675943e-05 1.0695603543e-05 1.0746682237e-05 1.1803668245e-05 1.1918564102e-05 1.1794531107e-05 1.1743893618e-05 
1.1747323045e-05 1.0863839791e-05 1.1863598307e-05 3.7160852889e-06 3.7164585006e-06 3.7160894166e-06 3.7164556997e-06 8.3477387272e-06 8.3477382208e-06 
8.34452003e-06 8.3445204328e-06 3.6944391284e-06 3.694434529e-06 3.6942558134e-06 3.6942505849e-06 7.4676387434e-08 7.4676387434e-08 9.3491853313e-06 
9.3311621914e-06 1.0545713841e-05 1.0695904542e-05 1.0780321232e-05 1.0769841193e-05 0.00086536222141 1.0852645117e-05 1.0863925525e-05 0.00086527929071 
1.0863799961e-05 1.078032337e-05 3.7118063014e-06 3.7118052314e-06 3.7126171252e-06 3.7126181958e-06 8.3263280138e-06 8.3325863043e-06 8.3263263142e-06 
8.332588004e-06 3.694175464e-06 3.6945092356e-06 3.6945137963e-06 3.6941709036e-06 7.4677490414e-08 7.4677490414e-08 9.2430506344e-06 9.3357996444e-06 
1.0603054221e-05 1.0695911379e-05 0.00085942993177 0.00086527955589 1.0737926293e-05 1.0863337335e-05 1.1778540747e-05 1.0770105681e-05 1.1868679693e-05 
1.0864383505e-05 3.7052375193e-06 3.7129253633e-06 3.7052357612e-06 3.7129253633e-06 8.2900238371e-06 8.3463965772e-06 8.2900303241e-06 8.3463926512e-06 
3.6926767227e-06 3.6960088358e-06 3.6960108192e-06 3.6926754652e-06 7.4699452581e-08 7.4699452581e-08 9.3827377244e-06 9.3731529056e-06 1.0627675943e-05 
1.0601792961e-05 1.0772876578e-05 1.0863834323e-05 1.1918563397e-05 1.1747322525e-05 1.1857316181e-05 1.0863834161e-05 1.0772873842e-05 1.175853724e-05 
3.716084678e-06 3.7164545381e-06 3.7164592026e-06 3.716084678e-06 8.3477343183e-06 8.3477387272e-06 8.3445246237e-06 8.3445202246e-06 3.6944391284e-06 
3.694438913e-06 3.6942516799e-06 3.6942560511e-06 0.33396556441 0.33396556441 0.29240390883 0.29235708674 0.2875441177 0.28742380993 
0.27225876361 0.27226434721 0.27218448512 0.27218455079 0.27218448513 0.2722587636 0.27226434721 0.27218455079 0.31214987902 
0.31216273634 0.31216273634 0.31214987902 0.32569579935 0.32569257596 0.32569579936 0.32569257597 0.30928989581 0.30928805821 
0.3092880582 0.30928989581 7.4699452581e-08 7.4699452581e-08 9.2869495131e-06 9.4074651075e-06 1.0695948064e-05 1.0545757081e-05 1.0784026583e-05 
1.0773214345e-05 1.0852678705e-05 1.0863903723e-05 0.00086528266232 1.0863835646e-05 0.00086536220169 1.0784024527e-05 3.7160863491e-06 3.7164543118e-06 
3.7160874229e-06 3.71645324e-06 8.3445250421e-06 8.3477394232e-06 8.3445233428e-06 8.3477411226e-06 3.694246125e-06 3.694437057e-06 3.6942506856e-06 
3.6944324964e-06 7.4677490414e-08 7.4677490414e-08 9.1693697629e-06 9.2979878111e-06 1.0675053502e-05 1.0545722167e-05 1.0764119531e-05 1.0827188117e-05 
1.1810646428e-05 0.00086536268447 1.0852185823e-05 1.0764116358e-05 1.1866210718e-05 0.00085934680754 3.7052384689e-06 3.7129309357e-06 3.7052347901e-06 
3.7129328011e-06 8.2900253644e-06 8.2900326223e-06 8.346394038e-06 8.3463882144e-06 3.6926797925e-06 3.6960129045e-06 3.6926720005e-06 3.6960031205e-06 
7.4699452581e-08 7.4699452581e-08 9.3285414747e-06 9.373147178e-06 1.0702538013e-05 1.0627675943e-05 1.1918564102e-05 1.1826791901e-05 1.1747321794e-05 
1.0784027056e-05 1.1784057992e-05 1.1777438561e-05 1.0863838538e-05 1.1852079886e-05 3.7164534265e-06 3.716093248e-06 3.7160893712e-06 3.7164526453e-06 
8.3445187038e-06 8.3445204037e-06 8.3477341755e-06 8.3477387272e-06 3.6942538059e-06 3.6944391284e-06 3.6944399631e-06 3.6942505322e-06 7.4699452581e-08 
7.4699452581e-08 9.3285414747e-06 9.4203644323e-06 1.0648512445e-05 1.0674635552e-05 1.0784026628e-05 1.0852686694e-05 1.1826862183e-05 1.1838006392e-05 
1.1777437064e-05 1.1767503107e-05 1.0852754001e-05 1.0773214843e-05 3.7164567947e-06 3.7160882248e-06 3.7164596168e-06 3.716090445e-06 8.3477383684e-06 
8.3445202154e-06 8.3445207424e-06 8.3477392795e-06 3.6944332251e-06 3.6942472613e-06 3.6944336325e-06 3.6942529627e-06 7.4677490414e-08 7.4677490414e-08 
9.2745248761e-06 9.2892029344e-06 1.0648474278e-05 1.0692641008e-05 1.0853233725e-05 1.1738222349e-05 1.1863030339e-05 1.17428722e-05 1.0745105642e-05 
1.1635849494e-05 1.1763445503e-05 1.1793996964e-05 3.7052319674e-06 3.7052370893e-06 3.7129287046e-06 3.7129308863e-06 8.2900264152e-06 8.2900306971e-06 
8.3463858671e-06 8.34639177e-06 3.6960067627e-06 3.6926799066e-06 3.6960044551e-06 3.6926750399e-06 9.9999984397e-05 9.9999984397e-05 0.00010000001776 
9.9999984397e-05 9.9999997253e-05 9.9999997253e-05 9.9999981851e-05 0.00010000002044 0.00010000000378 0.00010000000378 0.00010000000378 9.9999991326e-05 
9.9999957487e-05 0.00010000000938 9.999999925e-05 0.00010000001843 0.00010000001843 9.8901783924e-05 9.8989009282e-05 9.8901783924e-05 9.9999998828e-05 
9.8993953575e-05 9.8579260021e-05 9.8579260021e-05 9.8579234518e-05 9.5779600127e-05 9.4354449876e-05 9.435445247e-05 9.4354442764e-05 9.4327035078e-05 
9.4327037688e-05 9.4406012518e-05 0.00010000001678 0.00010000001678 0.00010000000039 9.8884217183e-05 9.5543969773e-05 9.8567022424e-05 9.8567022424e-05 
9.8527575466e-05 9.7845116419e-05 9.9999971138e-05 9.9999985435e-05 9.7805184057e-05 0.00010000001217 9.9999939809e-05 9.9999939208e-05 9.9999939208e-05 
9.9999991359e-05 9.9999991359e-05 9.9999991695e-05 9.9999998715e-05 0.00010000000516 0.00010000000516 0.0001000000026 9.9999994706e-05 9.9999994706e-05 
9.7795927073e-05 9.7813196776e-05 9.7813195053e-05 9.8877434897e-05 9.8877434897e-05 9.8877434897e-05 9.8863470889e-05 9.8863470889e-05 9.9999991487e-05 
0.00010000003105 9.9999997916e-05 9.9999997669e-05 9.9999997669e-05 0.00010000002142 0.0001000000111 0.00010000000713 0.0001000000111 9.9999995278e-05 
9.9999995278e-05 9.9999991236e-05 0.00010000001405 9.8730748229e-05 9.9999982081e-05 0.0001000000128 9.9999989475e-05 0.00010000006011 0.00010000007836 
0.00010000006011 0.00010000007836 0.00010000006011 0.00010000002232 9.9999963857e-05 9.9999964517e-05 9.9999964517e-05 9.999996483e-05 9.999996483e-05 
9.999996483e-05 9.7921735056e-05 9.7921725421e-05 9.7827514265e-05 9.7816325409e-05 9.7900193972e-05 9.7921736599e-05 9.7816323688e-05 9.7849395747e-05 
9.9999996021e-05 9.9999996021e-05 0.00010000000529 0.00010000000529 0.00010000002557 9.9999977609e-05 0.00010000006532 9.4383407955e-05 9.4383407955e-05 
9.4383409769e-05 9.4321624372e-05 9.4321626207e-05 0.00010000001881 0.00010000002453 0.00010000001241 0.00010000002684 9.7979329493e-05 9.7979330457e-05 
9.7963279542e-05 9.7913702449e-05 9.7979331121e-05 9.7962069332e-05 9.7829814229e-05 9.7829815982e-05 0.00010000000194 9.9999995058e-05 9.9999996867e-05 
9.9999996867e-05 9.9999996867e-05 9.9274886448e-05 9.9274886448e-05 9.9274886448e-05 9.9266217106e-05 9.9266217106e-05 9.9999993645e-05 0.00010000000582 
0.00010000000582 0.0001000000003 0.00010000002679 0.00010000003678 0.00010000000492 0.00010000000252 0.00010000000252 9.9999972539e-05 0.00010000001179 
9.9999990191e-05 9.9999993866e-05 9.9999993866e-05 9.9999990569e-05 0.00010000000856 9.9999982294e-05 0.00010000001052 0.00010000000876 0.00010000000876 
0.00010000001091 9.9999991183e-05 8.0469772616e-05 0.00010000001773 8.073279606e-05 8.9179515165e-05 9.9999980362e-05 8.9285028734e-05 9.9999988104e-05 
9.9999988104e-05 0.00010000000475 9.8944990745e-05 9.8944990745e-05 9.8944990745e-05 9.8936067238e-05 9.8936067238e-05 0.00010000003764 0.00010000000257 
0.00010000000365 0.00010000000365 9.9999996024e-05 0.00010000004839 0.00010000000858 0.00010000000858 9.999999726e-05 0.00010000000411 9.9999987727e-05 
9.9999987727e-05 9.9999987727e-05 9.9999993019e-05 9.8757195334e-05 9.9999977427e-05 9.9999970858e-05 0.00010000003092 0.00010000003092 0.00010000003092 
0.00010000001318 9.9999994705e-05 0.00010000000089 0.00010000000089 0.0001000000424 0.0001000000424 0.0001000000424 9.999998921e-05 0.00010000000648 
0.00010000000831 9.9999979527e-05 9.999998515e-05 0.00010000000555 0.00010000002613 0.00010000000555 9.999998515e-05 0.00010000001242 9.9999977673e-05 
9.9999977673e-05 9.9999977673e-05 9.9999986874e-05 9.4321941556e-05 9.4321941682e-05 9.4321943436e-05 9.8696169097e-05 9.8696169097e-05 9.8696169097e-05 
9.93437977e-05 9.9343795834e-05 9.9343795834e-05 9.9999992876e-05 0.00010000000378 0.00010000000378 9.9999974595e-05 0.00010000001872 0.00010000005204 
9.9999998503e-05 0.00010000005374 0.00010000004728 0.00010000004728 0.00010000003732 0.00010000001076 0.00010000000057 0.00010000003662 0.00010000001676 
0.00010000003662 0.00010000001096 0.00010000001096 9.9999998503e-05 9.9999987487e-05 9.9999969269e-05 9.9999987487e-05 9.9999987487e-05 9.4403811867e-05 
9.9999982853e-05 0.00010000004165 9.9999985149e-05 9.9999985149e-05 9.9999953461e-05 9.934115064e-05 0.0001000000057 9.9999989419e-05 9.9999989419e-05 
0.00010000000996 0.00010000003248 9.9999998027e-05 9.99999953e-05 9.99999953e-05 9.9999972019e-05 9.9999972019e-05 9.9999991232e-05 9.9999982731e-05 
9.999998285e-05 9.9999968024e-05 9.9999968024e-05 9.9999968024e-05 0.0001000000025 0.00010000000351 0.00010000000351 0.00010000005545 9.9999973945e-05 
9.9082254092e-05 0.00010000002033 0.00010000001145 9.9999957253e-05 9.9999952759e-05 0.0001000000162 0.0001000000162 9.9999952759e-05 9.9999969915e-05 
9.9999957253e-05 0.00010000001145 9.9999999313e-05 0.00010000001145 9.9999952759e-05 8.0197359283e-05 8.1799315238e-05 8.2876484305e-05 8.28768046e-05 
8.1008064954e-05 8.1799310854e-05 8.1799848317e-05 8.1799856381e-05 8.0931452428e-05 8.0934779429e-05 8.1008066132e-05 8.1187812268e-05 8.2876491688e-05 
8.1008045389e-05 0.040051556971 8.2876811984e-05 8.1747087049e-05 8.9477842691e-05 8.28768046e-05 8.1799856381e-05 8.240649078e-05 8.2005247597e-05 
0.00010000003464 9.999996246e-05 8.1986028374e-05 8.1361329065e-05 8.138292404e-05 8.200181641e-05 9.9999978734e-05 9.999999174e-05 9.999999174e-05 
0.00010000001332 9.472600337e-05 9.4795143723e-05 9.9999949606e-05 9.9999977545e-05 0.0001000000439 9.9999998233e-05 9.9999972099e-05 9.9999972099e-05 
9.9999999386e-05 9.8764162985e-05 9.8764164906e-05 9.99999942e-05 9.4657266434e-05 9.5216045241e-05 9.5216047458e-05 9.5216045549e-05 9.9999992874e-05 
0.00010000001371 9.5180250813e-05 9.518025305e-05 9.4052073877e-05 0.00010000002281 0.00010000001012 0.0001000000053 0.0001000000053 0.00010000000617 
9.860646167e-05 9.9999953314e-05 9.99999973e-05 8.0057117414e-05 7.9564746151e-05 7.9797363019e-05 8.0057117414e-05 7.9564743357e-05 7.9564746151e-05 
8.0057117414e-05 7.968014926e-05 7.9650126854e-05 7.9975410992e-05 7.9650129649e-05 7.9975410992e-05 9.9999994059e-05 8.1121006056e-05 8.0330887959e-05 
8.1214752319e-05 8.1294957626e-05 8.03255837e-05 8.1574791892e-05 8.0404619097e-05 8.1959044847e-05 8.1419660642e-05 8.1989058089e-05 8.122073416e-05 
8.1574796117e-05 8.1574791058e-05 8.1420475072e-05 8.1222541723e-05 8.039150054e-05 8.1177265671e-05 8.0312466283e-05 8.1959040099e-05 8.1808241884e-05 
8.1419651583e-05 8.141937671e-05 8.141936765e-05 8.1446965143e-05 8.1446443871e-05 8.1808241918e-05 8.1987755261e-05 8.1087877137e-05 8.0391501679e-05 
8.1446960566e-05 8.1808233863e-05 8.2112754247e-05 8.1419661536e-05 9.9999953343e-05 0.00010000001284 0.00010000001284 9.4261121808e-05 0.00010000002577 
9.4354686949e-05 9.4420275524e-05 9.4420272985e-05 9.4420275524e-05 9.441583117e-05 9.4415833035e-05 9.8664795628e-05 0.00010000004096 0.00010000004096 
0.00010000003059 0.00010000002064 0.00010000001512 0.00010000001512 9.9999986022e-05 9.7070122452e-05 0.00010000001464 9.9999995347e-05 9.9999995347e-05 
9.9999992181e-05 0.00010000001341 9.9999989131e-05 9.5316932012e-05 9.5316924978e-05 9.5316927062e-05 9.5312979494e-05 0.00010000003908 9.7461591361e-05 
0.00010000003999 9.7378797173e-05 7.9600091271e-05 7.9558125685e-05 9.8848961538e-05 9.8848961773e-05 9.8848961773e-05 8.9605847932e-05 8.9089090864e-05 
8.8817644586e-05 8.8464313369e-05 8.8464309543e-05 8.8603774821e-05 8.9165933285e-05 8.8947994155e-05 8.9534435568e-05 8.8947990431e-05 8.9534431716e-05 
8.8969732702e-05 8.846431731e-05 8.9165937304e-05 8.8464307761e-05 8.8464311701e-05 8.9165933219e-05 8.8603765978e-05 8.8464308505e-05 8.860376986e-05 
8.9534431663e-05 8.964265196e-05 0.00010000001887 8.8233376979e-05 8.8233376979e-05 8.9525579395e-05 8.9525581309e-05 8.9011702028e-05 8.8519700209e-05 
8.8233367382e-05 8.8233382303e-05 8.9525579395e-05 8.9525575835e-05 8.9525577749e-05 8.8233362058e-05 0.00010000005365 9.9076650868e-05 9.9076650868e-05 
9.9075483024e-05 9.9076644104e-05 0.000100000013 0.00010000003294 0.00010000003117 0.00010000003117 0.00010000003117 7.9095517943e-05 9.7664460676e-05 
0.00010000000837 9.7764084305e-05 0.00010000002017 0.00010000002017 9.7793660432e-05 9.7793658674e-05 9.7793659251e-05 0.00010000012285 0.00010000011328 
0.00010000010457 0.00010000010457 0.00010000010457 0.00010000010582 0.00010000010582 0.00010000010582 9.9999992334e-05 0.00010000001015 9.9999995603e-05 
6.9590892685e-05 0.014972467299 6.9627715426e-05 6.95908888e-05 6.9627728572e-05 6.9627714714e-05 6.9590896153e-05 6.9627724306e-05 6.9590895253e-05 
6.962772514e-05 0.045757567106 6.95700539e-05 6.9570065224e-05 6.9570058233e-05 6.9590889551e-05 6.9570065103e-05 6.9627718537e-05 6.9627720213e-05 
6.9627704252e-05 0.04575756712 6.962773324e-05 6.9570069018e-05 0.014972457214 6.9627731687e-05 6.9549771763e-05 6.9452430303e-05 6.945593499e-05 
6.9505088649e-05 6.9285786572e-05 6.9319244716e-05 6.9302193937e-05 6.927468584e-05 9.9999980111e-05 8.7936470766e-05 8.7876246654e-05 0.0001000000075 
0.00010000005806 9.9999983551e-05 9.9999983613e-05 9.9999974603e-05 0.00010000000013 0.00010000000013 0.00010000000013 0.00010000000024 9.9999993604e-05 
8.4084073806e-05 9.9999968875e-05 9.9999968875e-05 9.9999968875e-05 8.4284904821e-05 0.00010000001338 0.00010000001338 9.9999992747e-05 9.9999969202e-05 
8.3388997018e-05 9.0685532501e-05 8.3436181042e-05 0.00010000000944 0.0001000000286 0.0001000000286 0.0001000000286 8.6357306542e-05 7.9271873695e-05 
9.9999992092e-05 0.0001000000606 0.00010000002175 8.4001342111e-05 8.4001342111e-05 8.3512467601e-05 8.4001336188e-05 8.3512467601e-05 8.4001342111e-05 
0.0028136918323 8.3512460054e-05 8.3512460054e-05 8.3512460054e-05 8.4001336188e-05 0.0027800096998 0.00010000002915 0.0001000000283 0.00010000002915 
9.9999978198e-05 8.5196484827e-05 8.4089054683e-05 8.4957783985e-05 0.018248581067 8.4957785346e-05 8.4957777823e-05 8.4957777097e-05 8.4957778925e-05 
8.4957786071e-05 8.4957792233e-05 0.018248581054 8.4957777096e-05 8.4957785345e-05 8.4957787173e-05 0.00010000001076 9.9999962964e-05 9.9999962964e-05 
0.00010000001368 0.00010000012066 0.00010000012066 0.00010000000018 9.9999979807e-05 9.2163212538e-05 9.2864766412e-05 0.0001000000012 9.8822299465e-05 
0.00010000002677 0.00010000001325 0.00010000001325 9.9999993962e-05 0.00010000008811 9.893226983e-05 9.9999970382e-05 0.00010000014178 9.9999976218e-05 
9.6370207469e-05 9.6438656662e-05 9.6438638413e-05 9.6438653928e-05 9.6051049514e-05 9.6051049514e-05 9.605105525e-05 9.6051051954e-05 9.6051046218e-05 
9.6438638413e-05 9.6438641147e-05 9.623199585e-05 9.2200823108e-05 9.2091788944e-05 9.2200827147e-05 9.2091785569e-05 9.209178488e-05 9.2200830429e-05 
0.003788952918 9.2091789604e-05 9.2200826494e-05 0.0037878064217 9.2200831112e-05 9.2091785528e-05 0.00010000003479 0.00010000003479 9.9999993995e-05 
9.99999634e-05 9.1676219639e-05 9.1685473875e-05 9.2117258733e-05 9.167922173e-05 8.283698148e-05 8.2912965267e-05 9.9999959577e-05 9.9999962344e-05 
9.9999962344e-05 9.9999966204e-05 9.9999995202e-05 9.9999995202e-05 9.9999995202e-05 9.9999968569e-05 9.9999968569e-05 9.5063946104e-05 9.9999975254e-05 
0.00010000000119 0.00010000000316 0.00010000000011 0.00010000000316 9.7286776234e-05 9.9999975524e-05 0.0001000000152 0.0001000000152 0.041412075506 
8.0432374316e-05 7.8849645708e-05 7.8849619615e-05 6.9517591897e-05 6.9434665803e-05 6.9434672628e-05 0.045965454946 0.015046988273 6.9517587963e-05 
0.015046988281 0.04596545495 8.4399772602e-05 0.01901147207 0.01901147207 8.4399772602e-05 0.0039991608181 9.1742239947e-05 0.0039991608131 
9.1742244912e-05 0.0030360345194 8.2432887482e-05 8.2432877732e-05 0.0030360345292 0.00010000000409 0.00010000000409 8.0359732218e-05 8.0351560311e-05 
0.046521482992 7.88496256e-05 6.9514591468e-05 6.9434705374e-05 0.046048957986 0.015047067709 0.015047068076 6.9434784319e-05 6.95142245e-05 
0.046049016457 8.4324242358e-05 8.43156338e-05 0.0028478968401 0.0028487948329 0.0044433787567 0.0044436356109 9.1730236023e-05 9.1727014581e-05 
0.0218225012 0.021821609755 8.2433557605e-05 8.2434864442e-05 9.9999999331e-05 9.9999999331e-05 8.0643013695e-05 0.04137744443 7.8757411413e-05 
7.8849644688e-05 6.9435274893e-05 0.015046987705 6.9523339506e-05 0.045966396401 6.9523335826e-05 0.045966396405 6.9435273428e-05 0.015046987705 
0.019043894229 8.4543889897e-05 8.4543889897e-05 0.019043894229 0.0040159967471 0.0040159967463 9.1784796739e-05 9.1784797539e-05 8.2445616629e-05 
0.0030451283992 0.0030451283968 8.24456142e-05 
POINT_DATA 565
FIELD FieldData 1
radiation%20flux%20density 1 565 double
0.00010000010519 0.00010000010519 0.00010000011806 0.00010000010519 6.8055096337e-05 6.2922141196e-05 4.0213599393e-05 6.7836311563e-05 4.0214015441e-05 
6.783631154e-05 6.8055154405e-05 6.2922141412e-05 4.0177464536e-05 6.7867009579e-05 6.2911505844e-05 4.0180536529e-05 4.0178777199e-05 6.7866951665e-05 
6.2536668968e-05 4.0150823959e-05 4.009402426e-05 6.7808793752e-05 0.083488922091 0.083499251078 6.7623685689e-05 4.0125910934e-05 4.017729578e-05 
6.7866951546e-05 6.2911505627e-05 4.017980503e-05 6.2761081942e-05 6.8116840536e-05 6.2922140266e-05 6.6887837564e-05 6.8057877774e-05 6.263546032e-05 
0.083536008364 0.083525671274 0.00010000005555 9.9999997435e-05 9.9999989783e-05 9.9999997138e-05 0.00010000000461 0.00010000002521 9.9999995091e-05 
9.9999994578e-05 0.00010000000632 0.00010000005376 0.00010000005338 9.9999995722e-05 9.9999987879e-05 0.00010000000473 9.9999994107e-05 9.9999981079e-05 
0.00010000004063 0.00010000003385 9.9999979664e-05 0.00010000000124 0.00010000001364 0.0001000000007 0.00010000002278 9.9999997457e-05 9.9999994578e-05 
0.00010000000632 0.00010000005376 0.00010000005338 9.9999995722e-05 9.9999987879e-05 0.00010000000473 9.9999994107e-05 9.9999981079e-05 0.00010000004063 
0.00010000005555 9.9999997435e-05 9.9999989783e-05 9.9999997138e-05 0.00010000000461 0.00010000002521 9.9999995175e-05 9.9999997404e-05 0.00010000000072 
9.9999998159e-05 0.0001000000276 0.00010000004972 0.00010000001714 0.00010000001229 9.9999994339e-05 9.9999981079e-05 0.00010000004063 0.00010000005555 
9.9999997215e-05 9.999998827e-05 0.00010000001855 0.00010000000005 9.9999969459e-05 0.00010000004774 0.00010000006597 9.9999994306e-05 9.99999875e-05 
0.00010000001362 0.00010000005682 0.00010000002567 9.9999987609e-05 0.00010000001156 9.9999996079e-05 0.00010000003902 4.6252988791e-05 4.6076397909e-05 
4.6214825973e-05 4.290402349e-05 4.2982131269e-05 4.5972684097e-05 4.6118583432e-05 4.6244415751e-05 4.2745987756e-05 4.5736582323e-05 4.6355239869e-05 