# vtk DataFile Version 5.1
vtk output
ASCII
DATASET UNSTRUCTURED_GRID
POINTS 565 double
0 0 0 7 0 0 0 7 0 
7 7 0 1 1 0 2 1 0 
2 2 0 1 2 0 5 2 0 
5 1 0 6 1 0 6 2 0 
3 2 0 3 1 0 4 1 0 
4 2 0 5 3 0 6 3 0 
6 4 0 5 4 0 5 5 0 
4 5 0 4 4 0 3 4 0 
3 5 0 2 5 0 2 4 0 
1 4 0 1 3 0 2 3 0 
2 6 0 1 6 0 1 5 0 
6 5 0 6 6 0 5 6 0 
3 3 0 4 3 0 0.38888888889 0 0 
0.77777777778 0 0 1.1666666667 0 0 1.5555555556 0 0 
1.9444444444 0 0 2.3333333333 0 0 2.7222222222 0 0 
3.1111111111 0 0 3.5 0 0 3.8888888889 0 0 
4.2777777778 0 0 4.6666666667 0 0 5.0555555556 0 0 
5.4444444444 0 0 5.8333333333 0 0 6.2222222222 0 0 
6.6111111111 0 0 0 6.6111111111 0 0 6.2222222222 0 
0 5.8333333333 0 0 5.4444444444 0 0 5.0555555556 0 
0 4.6666666667 0 0 4.2777777778 0 0 3.8888888889 0 
0 3.5 0 0 3.1111111111 0 0 2.7222222222 0 
0 2.3333333333 0 0 1.9444444444 0 0 1.5555555556 0 
0 1.1666666667 0 0 0.77777777778 0 0 0.38888888889 0 
7 0.38888888889 0 7 0.77777777778 0 7 1.1666666667 0 
7 1.5555555556 0 7 1.9444444444 0 7 2.3333333333 0 
7 2.7222222222 0 7 3.1111111111 0 7 3.5 0 
7 3.8888888889 0 7 4.2777777778 0 7 4.6666666667 0 
7 5.0555555556 0 7 5.4444444444 0 7 5.8333333333 0 
7 6.2222222222 0 7 6.6111111111 0 6.6111111111 7 0 
6.2222222222 7 0 5.8333333333 7 0 5.4444444444 7 0 
5.0555555556 7 0 4.6666666667 7 0 4.2777777778 7 0 
3.8888888889 7 0 3.5 7 0 3.1111111111 7 0 
2.7222222222 7 0 2.3333333333 7 0 1.9444444444 7 0 
1.5555555556 7 0 1.1666666667 7 0 0.77777777778 7 0 
0.38888888889 7 0 1.3333333333 1 0 1.6666666667 1 0 
2 1.3333333333 0 2 1.6666666667 0 1.6666666667 2 0 
1.3333333333 2 0 1 1.6666666667 0 1 1.3333333333 0 
5 1.6666666667 0 5 1.3333333333 0 5.3333333333 1 0 
5.6666666667 1 0 6 1.3333333333 0 6 1.6666666667 0 
5.6666666667 2 0 5.3333333333 2 0 2.3333333333 2 0 
2.6666666667 2 0 3 1.6666666667 0 3 1.3333333333 0 
3.3333333333 1 0 3.6666666667 1 0 4 1.3333333333 0 
4 1.6666666667 0 4.3333333333 2 0 4.6666666667 2 0 
5 2.3333333333 0 5 2.6666666667 0 5.3333333333 3 0 
5.6666666667 3 0 6 3.3333333333 0 6 3.6666666667 0 
5.6666666667 4 0 5.3333333333 4 0 5 4.3333333333 0 
5 4.6666666667 0 4.6666666667 5 0 4.3333333333 5 0 
4 4.6666666667 0 4 4.3333333333 0 3.6666666667 4 0 
3.3333333333 4 0 3 4.3333333333 0 3 4.6666666667 0 
2.6666666667 5 0 2.3333333333 5 0 2 4.6666666667 0 
2 4.3333333333 0 1.6666666667 4 0 1.3333333333 4 0 
1 3.6666666667 0 1 3.3333333333 0 1.3333333333 3 0 
1.6666666667 3 0 2 2.6666666667 0 2 2.3333333333 0 
2 5.3333333333 0 2 5.6666666667 0 1.6666666667 6 0 
1.3333333333 6 0 1 5.6666666667 0 1 5.3333333333 0 
1.3333333333 5 0 1.6666666667 5 0 5.3333333333 5 0 
5.6666666667 5 0 6 5.3333333333 0 6 5.6666666667 0 
5.6666666667 6 0 5.3333333333 6 0 5 5.6666666667 0 
5 5.3333333333 0 3 2.3333333333 0 3 2.6666666667 0 
3.3333333333 3 0 3.6666666667 3 0 4 2.6666666667 0 
4 2.3333333333 0 3.6666666667 2 0 3.3333333333 2 0 
2 3.3333333333 0 2 3.6666666667 0 2.3333333333 4 0 
2.6666666667 4 0 3 3.6666666667 0 3 3.3333333333 0 
2.6666666667 3 0 2.3333333333 3 0 4 3.3333333333 0 
4 3.6666666667 0 4.3333333333 4 0 4.6666666667 4 0 
5 3.6666666667 0 5 3.3333333333 0 4.6666666667 3 0 
4.3333333333 3 0 1.2951917063 1.5 0 1.7050506247 1.5 0 
1.5000403885 1.2474399183 0 1.5000403885 1.7525600817 0 1.7576802451 1.7576802451 0 
1.2423197549 1.2423197549 0 1.7576802451 1.2423197549 0 1.2423197549 1.7576802451 0 
1.5 3.7048082937 0 1.5 3.2949493753 0 1.2474399183 3.4999596115 0 
1.7525600817 3.4999596115 0 1.2423197549 3.7576802451 0 1.7576802451 3.2423197549 0 
1.7576802451 3.7576802451 0 1.2423197549 3.2423197549 0 1.7048082937 5.5 0 
1.2949493753 5.5 0 1.4999596115 5.2474399183 0 1.4999596115 5.7525600817 0 
1.2423197549 5.2423197549 0 1.7576802451 5.7576802451 0 1.7576802451 5.2423197549 0 
1.2423197549 5.7576802451 0 2.5 2.297798335 0 2.5 2.7026766338 0 
2.2474399183 2.5000791615 0 2.7525600817 2.5000791615 0 2.2423197549 2.7576802451 0 
2.7576802451 2.7576802451 0 2.2423197549 2.2423197549 0 2.7576802451 2.2423197549 0 
2.5 4.6985523849 0 2.5 4.2971333787 0 2.2474399183 4.4992809606 0 
2.7525600817 4.4992809606 0 2.7576802451 4.2423197549 0 2.2423197549 4.7576802451 0 
2.7576802451 4.7576802451 0 2.2423197549 4.2423197549 0 3.5 1.7048082937 0 
3.5 1.2949493753 0 3.2474399183 1.4999596115 0 3.7525600817 1.4999596115 0 
3.2423197549 1.2423197549 0 3.2423197549 1.7576802451 0 3.7576802451 1.2423197549 0 
3.7576802451 1.7576802451 0 3.5 3.2951917063 0 3.5 3.7050506247 0 
3.2474399183 3.5000403885 0 3.7525600817 3.5000403885 0 3.2423197549 3.2423197549 0 
3.7576802451 3.7576802451 0 3.2423197549 3.7576802451 0 3.7576802451 3.2423197549 0 
4.5 2.2951917063 0 4.5 2.7050506247 0 4.2474399183 2.5000403885 0 
4.7525600817 2.5000403885 0 4.7576802451 2.2423197549 0 4.2423197549 2.2423197549 0 
4.7576802451 2.7576802451 0 4.2423197549 2.7576802451 0 4.6985523849 4.5 0 
4.2971333787 4.5 0 4.4992809606 4.7525600817 0 4.4992809606 4.2474399183 0 
4.7576802451 4.7576802451 0 4.2423197549 4.7576802451 0 4.7576802451 4.2423197549 0 
4.2423197549 4.2423197549 0 5.2951917063 1.5 0 5.7050506247 1.5 0 
5.5000403885 1.2474399183 0 5.5000403885 1.7525600817 0 5.2423197549 1.7576802451 0 
5.7576802451 1.2423197549 0 5.2423197549 1.2423197549 0 5.7576802451 1.7576802451 0 
5.5 3.2951917063 0 5.5 3.7050506247 0 5.7525600817 3.5000403885 0 
5.2474399183 3.5000403885 0 5.7576802451 3.2423197549 0 5.2423197549 3.7576802451 0 
5.7576802451 3.7576802451 0 5.2423197549 3.2423197549 0 5.6985523849 5.5 0 
5.2971333787 5.5 0 5.4992809606 5.2474399183 0 5.4992809606 5.7525600817 0 
5.2423197549 5.2423197549 0 5.7576802451 5.2423197549 0 5.7576802451 5.7576802451 0 
5.2423197549 5.7576802451 0 3.7485855544 6.6942501976 0 2.2872656985 5.8378913721 0 
4.7119339728 5.8373697827 0 2.8759754619 6.5951459244 0 2.8162186717 5.3084308736 0 
3.186129153 5.2921568433 0 2.9979032054 5.5850721589 0 3.3402908331 5.6008010525 0 
4.1834772538 5.3076746294 0 4.7107049802 6.1677403394 0 4.4211946596 6.0016838939 0 
0.27665997492 2.5838218441 0 6.7053237048 2.42793991 0 0.29467629521 4.57206009 0 
4.4161781559 0.27665997492 0 6.663212343 4.4722222222 0 2.42793991 0.29467629521 0 
2.2918240758 6.1960938346 0 3.1734987121 5.8836777691 0 3.5136330362 5.8882723168 0 
6.6167962299 6.3741865029 0 6.3741865029 0.38320377014 0 0.38357251857 6.3760800284 0 
0.38320377014 0.6258134971 0 5.5 4.7113248654 0 2.5 1.6872666359 0 
5.8514999722 2.3378951476 0 3.6772759043 4.8414452564 0 4.3378951476 1.1485000278 0 
1.1485000278 4.6621048524 0 1.1485000278 2.6621048524 0 2.3378951476 1.1485000278 0 
5.1103344757 6.2741611014 0 0.71132486541 5.1666666667 0 6.2886751346 1.8333333333 0 
1.8333333333 0.71132486541 0 1.8899895413 6.2784546756 0 5.1666666667 0.71132486541 0 
6.2886751346 5.1666666667 0 0.71132486541 1.8333333333 0 3.8333333333 0.71132486541 0 
6.2886751346 3.8333333333 0 0.71132486541 3.1666666667 0 6.2939163714 3.1693263045 0 
3.1693263045 0.70608362863 0 0.70608362863 3.8306736955 0 6.3007298331 5.8302758913 0 
5.8302758913 0.69927016685 0 0.68791714935 5.8284678454 0 0.69927016685 1.1697241087 0 
1.1703128001 0.69343635082 0 1.1703128001 6.3065636492 0 5.8296871999 6.3065636492 0 
6.3065636492 1.1703128001 0 4.4127643558 6.3484393703 0 4.0729408297 6.1740044985 0 
5.3127333641 2.5 0 4.5 1.6872666359 0 1.6872666359 4.5 0 
1.6872666359 2.5 0 3.5 4.3127333641 0 2.5448645473 5.9628839255 0 
5.8438027206 4.298242306 0 3.341591884 6.1882059124 0 3.8079455038 5.2924572466 0 
4.0000028322 5.5805606494 0 0.80895730489 4.7699760833 0 2.2300239167 0.80895730489 0 
6.1910426951 2.2300239167 0 0.81140688702 2.7706116978 0 4.2293883022 0.81140688702 0 
6.1530370913 4.2585353481 0 2.1540193915 6.522253769 0 4.8162223334 6.4882902395 0 
4.8222111689 0.70955465736 0 6.2921473568 4.827319268 0 0.70955465736 2.1777888311 0 
6.3389745166 0.79855227087 0 0.79855227087 0.66102548337 0 6.2014477291 6.3389745166 0 
0.79902978757 6.339184919 0 2.827319268 0.70785264318 0 6.2921473568 2.827319268 0 
0.70785264318 4.172680732 0 2.984286409 6.1874521762 0 2.6004296679 5.6380503952 0 
4.3907348225 5.6293300039 0 2.4954354469 6.464014563 0 0.49511543862 4.857146981 0 
2.142853019 0.49511543862 0 6.5048845614 2.142853019 0 5.8109523545 2.6966506386 0 
3.3095189699 4.8399570492 0 1.1890476455 2.3033493614 0 2.6966506386 1.1890476455 0 
4.6966506386 1.1890476455 0 1.1890476455 4.3033493614 0 3.5 5.1333820886 0 
6.0092788027 4.6114103291 0 4.1180693191 6.5205687606 0 1.3559386168 0.35702514778 0 
5.6476385745 0.34601141574 0 0.34413339402 5.6496515319 0 0.34601141574 1.3523614255 0 
6.6539885843 5.6476385745 0 5.6440613832 6.6429748522 0 1.3559386168 6.6429748522 0 
6.6429748522 1.3559386168 0 3.691651827 6.1657024845 0 0.38131474442 4.0107495165 0 
0.35859789556 3.6542298248 0 2.9892504835 0.38131474442 0 3.3457701752 0.35859789556 0 
6.6186852556 2.9892504835 0 6.6414021044 3.3457701752 0 2.485711609 5.2962123554 0 
4.5142724884 5.301683263 0 4.1386885406 0.49621789734 0 0.49621789734 2.8613114594 0 
6.4653693356 4.1675183045 0 1.7815734083 0.35375209722 0 0.35191041811 5.2192251844 0 
5.2045327576 6.6420335985 0 5.2715908019 0.34496760504 0 0.34496760504 1.7284091981 0 
1.7912623484 6.6472833477 0 6.6462479028 1.7815734083 0 6.655032395 5.2715908019 0 
6.0018111307 0.33962155199 0 6.660378448 6.0018111307 0 0.33962155199 0.99818886931 0 
0.33789389548 6.0020556849 0 4.8431738401 0.36643899333 0 0.36643899333 2.1568261599 0 
6.6695014189 4.8502181121 0 3.3194031049 6.6880752893 0 0.98302760942 6.6572105079 0 
6.0170519767 6.6571754409 0 6.6571754409 0.9829480233 0 0.9829480233 0.34282455914 0 
0.60283050123 6.6812981717 0 6.6809416725 0.60267619269 0 0.60267619269 0.31905832746 0 
6.3973238073 6.6809416725 0 5.508864916 4.3176715804 0 3.7798225257 0.35426223421 0 
0.35426223421 3.2201774743 0 6.6429380014 3.7819238204 0 0.71132486541 5.5 0 
5.4647693027 6.3109555335 0 1.5 0.71132486541 0 3.5 0.71132486541 0 
0.71132486541 3.5 0 6.2886751346 1.5 0 6.2886751346 3.5 0 
[...]
CELL_DATA 1056
FIELD FieldData 1
radiation%20flux%20density 1 1056 double
-4.6843286457e-07 -4.6843286457e-07 0.00010425370078 0.00010442637056 5.2194546196e-05 5.2194546196e-05 0.00043984580287 0.00043984580287 0.00043984580287 
0.00043984580287 0.00043984580287 0.00043984580287 0.00043984580287 0.00043984580287 0.00051897504325 0.00051897504325 0.00051933471686 0.00051933471686 
-4.6843286457e-07 -4.6843286457e-07 -4.6843286457e-07 -4.6843286457e-07 0.00060239681082 0.00060235158379 0.00060235158379 0.00060239681082 -4.6843286457e-07 
-4.6843286457e-07 0.00010442637056 0.00010425370078 5.2194546196e-05 5.2194546196e-05 0.00043984580287 0.00043984580287 0.00043984580287 0.00043984580287 
0.00043984580287 0.00043984580287 0.00043984580287 0.00043984580287 0.00051933471686 0.00051897504325 0.00051933471686 0.00051897504325 -4.6843286457e-07 
-4.6843286457e-07 -4.6843286457e-07 -4.6843286457e-07 0.00060235158379 0.00060235158379 0.00060239681082 0.00060239681082 -4.6843286457e-07 -4.6843286457e-07 
0.00010442637056 0.00010425370078 5.2194546196e-05 5.2194546196e-05 0.00043984580287 0.00043984580287 0.00043984580287 0.00043984580287 0.00043984580287 
0.00043984580287 0.00043984580287 0.00043984580287 0.00051897504325 0.00051933471686 0.00051897504325 0.00051933471686 -4.6843286457e-07 -4.6843286457e-07 
-4.6843286457e-07 -4.6843286457e-07 0.00060239681082 0.00060239681082 0.00060235158379 0.00060235158379 -4.6843286457e-07 -4.6843286457e-07 0.00010623953903 
0.00010591509378 5.2194546196e-05 5.2194546196e-05 0.00043984580287 0.00043984580287 0.00043984580287 0.00043984580287 0.00043984580287 0.00043984580287 
0.00043984580287 0.00043984580287 0.00051514048675 0.00051514048675 0.00051583456771 0.00051583456771 -4.6843286457e-07 -4.6843286457e-07 -4.6843286457e-07 
-4.6843286457e-07 0.00060232988481 0.00060241852979 0.00060241852979 0.00060232988481 -4.6843286457e-07 -4.6843286457e-07 0.00010864689999 0.00010578458194 
5.2194546196e-05 5.2194546196e-05 0.00043984580287 0.00043984580287 0.00043984580287 0.00043984580287 0.00043984580287 0.00043984580287 0.00043984580287 
0.00043984580287 0.00050987524861 0.00051611277486 0.00050987524861 0.00051611277486 -4.6843286457e-07 -4.6843286457e-07 -4.6843286457e-07 -4.6843286457e-07 
0.00060197271578 0.00060277790196 0.00060277790196 0.00060197271578 -4.6843286457e-07 -4.6843286457e-07 0.00010442637056 0.00010425370078 5.2194546196e-05 
5.2194546196e-05 0.00043984580287 0.00043984580287 0.00043984580287 0.00043984580287 0.00043984580287 0.00043984580287 0.00043984580287 0.00043984580287 
0.00051897504325 0.00051933471686 0.00051933471686 0.00051897504325 -4.6843286457e-07 -4.6843286457e-07 -4.6843286457e-07 -4.6843286457e-07 0.00060239681082 
0.00060239681082 0.00060235158379 0.00060235158379 0.31882533139 0.31882533139 0.28202428838 0.28200135464 0.27696677497 0.27696677497 
0.26517826308 0.26517826308 0.26517826308 0.26517826308 0.26517826308 0.26517826308 0.26517826308 0.26517826308 0.30416195526 
0.30417210147 0.30417210147 0.30416195526 0.31882533139 0.31882533139 0.31882533139 0.31882533139 0.30182009268 0.30181881685 
0.30181881685 0.30182009268 -4.6843286457e-07 -4.6843286457e-07 0.00010425370078 0.00010442637056 5.2194546196e-05 5.2194546196e-05 0.00043984580287 
0.00043984580287 0.00043984580287 0.00043984580287 0.00043984580287 0.00043984580287 0.00043984580287 0.00043984580287 0.00051897504325 0.00051933471686 
0.00051897504325 0.00051933471686 -4.6843286457e-07 -4.6843286457e-07 -4.6843286457e-07 -4.6843286457e-07 0.00060235158379 0.00060239681082 0.00060235158379 
0.00060239681082 -4.6843286457e-07 -4.6843286457e-07 0.00010864689999 0.00010578458194 5.2194546196e-05 5.2194546196e-05 0.00043984580287 0.00043984580287 
0.00043984580287 0.00043984580287 0.00043984580287 0.00043984580287 0.00043984580287 0.00043984580287 0.00050987524861 0.00051611277486 0.00050987524861 
0.00051611277486 -4.6843286457e-07 -4.6843286457e-07 -4.6843286457e-07 -4.6843286457e-07 0.00060197271578 0.00060277790196 0.00060197271578 0.00060277790196 
-4.6843286457e-07 -4.6843286457e-07 0.00010442637056 0.00010425370078 5.2194546196e-05 5.2194546196e-05 0.00043984580287 0.00043984580287 0.00043984580287 
0.00043984580287 0.00043984580287 0.00043984580287 0.00043984580287 0.00043984580287 0.00051933471686 0.00051897504325 0.00051897504325 0.00051933471686 
-4.6843286457e-07 -4.6843286457e-07 -4.6843286457e-07 -4.6843286457e-07 0.00060235158379 0.00060239681082 0.00060239681082 0.00060235158379 -4.6843286457e-07 
-4.6843286457e-07 0.00010442637056 0.00010425370078 5.2194546196e-05 5.2194546196e-05 0.00043984580287 0.00043984580287 0.00043984580287 0.00043984580287 
0.00043984580287 0.00043984580287 0.00043984580287 0.00043984580287 0.00051933471686 0.00051897504325 0.00051933471686 0.00051897504325 -4.6843286457e-07 
-4.6843286457e-07 -4.6843286457e-07 -4.6843286457e-07 0.00060239681082 0.00060235158379 0.00060239681082 0.00060235158379 -4.6843286457e-07 -4.6843286457e-07 
0.00010864689999 0.00010578458194 5.2194546196e-05 5.2194546196e-05 0.00043984580287 0.00043984580287 0.00043984580287 0.00043984580287 0.00043984580287 
0.00043984580287 0.00043984580287 0.00043984580287 0.00050987524861 0.00050987524861 0.00051611277486 0.00051611277486 -4.6843286457e-07 -4.6843286457e-07 
-4.6843286457e-07 -4.6843286457e-07 0.00060277790196 0.00060197271578 0.00060277790196 0.00060197271578 0.0035449077018 0.0035449077018 0.0035449077018 
0.0035449077018 0.0035449077018 0.0035449077018 0.0035449077018 0.0035449077018 0.0035449077018 0.0035449077018 0.0035449077018 0.0035449077018 
0.0035449077018 0.0035449077018 0.0035449077018 0.0035449077018 0.0035449077018 0.0035449077018 0.0035449077018 0.0035449077018 0.0035449077018 
0.0035449077018 0.0035449077018 0.0035449077018 0.0035449077018 0.0033950605193 0.0033371659702 0.0033371659702 0.0033371659702 0.0033359070862 
0.0033359070862 0.0033410998581 0.0035449077018 0.0035449077018 0.0035449077018 0.0035449077018 0.0033853177349 0.0035449077018 0.0035449077018 
0.0035449077018 0.0035449077018 0.0035449077018 0.0035449077018 0.0035449077018 0.0035449077018 0.0035449077018 0.0035449077018 0.0035449077018 
0.0035449077018 0.0035449077018 0.0035449077018 0.0035449077018 0.0035449077018 0.0035449077018 0.0035449077018 0.0035449077018 0.0035449077018 
0.0035449077018 0.0035449077018 0.0035449077018 0.0035449077018 0.0035449077018 0.0035449077018 0.0035449077018 0.0035449077018 0.0035449077018 
0.0035449077018 0.0035449077018 0.0035449077018 0.0035449077018 0.0035449077018 0.0035449077018 0.0035449077018 0.0035449077018 0.0035449077018 
0.0035449077018 0.0035449077018 0.0035449077018 0.0035449077018 0.0035449077018 0.0035449077018 0.0035449077018 0.0035449077018 0.0035449077018 
0.0035449077018 0.0035449077018 0.0035449077018 0.0035449077018 0.0035449077018 0.0035449077018 0.0035449077018 0.0035449077018 0.0035449077018 
0.0035449077018 0.0035449077018 0.0035449077018 0.0035449077018 0.0035449077018 0.0035449077018 0.0035449077018 0.0035449077018 0.0035449077018 
0.0035449077018 0.0035449077018 0.0035449077018 0.0035449077018 0.0035449077018 0.0035449077018 0.0035449077018 0.0033447755556 0.0033447755556 
0.0033447755556 0.003342366748 0.003342366748 0.0035449077018 0.0035449077018 0.0035449077018 0.0035449077018 0.0035449077018 0.0035449077018 
0.0035449077018 0.0035449077018 0.0035449077018 0.0035449077018 0.0035449077018 0.0035449077018 0.0035449077018 0.0035449077018 0.0035449077018 
0.0035449077018 0.0035449077018 0.0035449077018 0.0035449077018 0.0035449077018 0.0035449077018 0.0035449077018 0.0035449077018 0.0035449077018 
0.0035449077018 0.0035449077018 0.0035449077018 0.0035449077018 0.0035449077018 0.0035449077018 0.0035449077018 0.0035449077018 0.0035449077018 
0.0035449077018 0.0035449077018 0.0035449077018 0.0035449077018 0.0035449077018 0.0035449077018 0.0035449077018 0.0035449077018 0.0035449077018 
0.0035449077018 0.0035449077018 0.0028415261039 0.0035449077018 0.0028487149932 0.0031533249676 0.0035449077018 0.0031587407381 0.0035449077018 
0.0035449077018 0.0035449077018 0.0035449077018 0.0035449077018 0.0035449077018 0.0035449077018 0.0035449077018 0.0035449077018 0.0035449077018 
0.0035449077018 0.0035449077018 0.0035449077018 0.0035449077018 0.0035449077018 0.0035449077018 0.0035449077018 0.0035449077018 0.0035449077018 
0.0035449077018 0.0035449077018 0.0035449077018 0.0035449077018 0.0035449077018 0.0035449077018 0.0035449077018 0.0035449077018 0.0035449077018 
0.0035449077018 0.0035449077018 0.0035449077018 0.0035449077018 0.0035449077018 0.0035449077018 0.0035449077018 0.0035449077018 0.0035449077018 
0.0035449077018 0.0035449077018 0.0035449077018 0.0035449077018 0.0035449077018 0.0035449077018 0.0035449077018 0.0035449077018 0.0035449077018 
0.0035449077018 0.0035449077018 0.0035449077018 0.0033389368242 0.0033389368242 0.0033389368242 0.0035449077018 0.0035449077018 0.0035449077018 
0.0035449077018 0.0035449077018 0.0035449077018 0.0035449077018 0.0035449077018 0.0035449077018 0.0035449077018 0.0035449077018 0.0035449077018 
0.0035449077018 0.0035449077018 0.0035449077018 0.0035449077018 0.0035449077018 0.0035449077018 0.0035449077018 0.0035449077018 0.0035449077018 
0.0035449077018 0.0035449077018 0.0035449077018 0.0035449077018 0.0035449077018 0.0035449077018 0.0035449077018 0.0035449077018 0.0033440187619 
0.0035449077018 0.0035449077018 0.0035449077018 0.0035449077018 0.0035449077018 0.0035449077018 0.0035449077018 0.0035449077018 0.0035449077018 
0.0035449077018 0.0035449077018 0.0035449077018 0.0035449077018 0.0035449077018 0.0035449077018 0.0035449077018 0.0035449077018 0.0035449077018 
0.0035449077018 0.0035449077018 0.0035449077018 0.0035449077018 0.0035449077018 0.0035449077018 0.0035449077018 0.0035449077018 0.0035449077018 
0.0035449077018 0.0035449077018 0.0035449077018 0.0035449077018 0.0035449077018 0.0035449077018 0.0035449077018 0.0035449077018 0.0035449077018 
0.0035449077018 0.0035449077018 0.0035449077018 0.0035449077018 0.0035449077018 0.0028315368983 0.0028508924397 0.0028944864858 0.0028944864858 
0.0028630409806 0.0028508924397 0.0028508924397 0.0028508924397 0.0028630409806 0.0028630409806 0.0028630409806 0.0028693484223 0.0028944864858 
0.0028630409806 0.038751897083 0.0028944864858 0.002844200172 0.0031668917058 0.0028944864858 0.0028508924397 0.0028757358954 0.0028589027142 
0.0035449077018 0.0035449077018 0.002856517169 0.0028296597925 0.0028307259915 0.0028574962853 0.0035449077018 0.0035449077018 0.0035449077018 
0.0035449077018 0.0033566392073 0.0033592761511 0.0035449077018 0.0035449077018 0.0035449077018 0.0035449077018 0.0035449077018 0.0035449077018 
0.0035449077018 0.0035449077018 0.0035449077018 0.0035449077018 0.0033514313006 0.0033764630437 0.0033764630437 0.0033764630437 0.0035449077018 
0.0035449077018 0.0033748747111 0.0033748747111 0.0033247599638 0.0035449077018 0.0035449077018 0.0035449077018 0.0035449077018 0.0035449077018 
0.0035449077018 0.0035449077018 0.0035449077018 0.0028189281183 0.0028043232555 0.0028126048354 0.0028189281183 0.0028043232555 0.0028043232555 
0.0028189281183 0.0028050264691 0.0028043232555 0.0028189281183 0.0028043232555 0.0028189281183 0.0035449077018 0.0028607552598 0.0028315368983 
0.0028677357416 0.0028677357416 0.0028315368983 0.0028384927728 0.0028315368983 0.0028550763922 0.0028315368983 0.0028550763922 0.0028178786241 
0.0028384927728 0.0028384927728 0.0028315368983 0.0028677357416 0.0028315368983 0.0028628005679 0.0028315368983 0.0028550763922 0.0028474663666 
0.0028315368983 0.0028315368983 0.0028315368983 0.0028315368983 0.0028315368983 0.0028474663666 0.0028550763922 0.002812120006 0.0028315368983 
0.0028315368983 0.0028474663666 0.0028622055258 0.0028315368983 0.0035449077018 0.0035449077018 0.0035449077018 0.003334584237 0.0035449077018 
0.0033377925807 0.0033416098738 0.0033416098738 0.0033416098738 0.0033402657985 0.0033402657985 0.0035449077018 0.0035449077018 0.0035449077018 
0.0035449077018 0.0035449077018 0.0035449077018 0.0035449077018 0.0035449077018 0.0035449077018 0.0035449077018 0.0035449077018 0.0035449077018 
0.0035449077018 0.0035449077018 0.0035449077018 0.0033791071743 0.0033791071743 0.0033791071743 0.0033789536273 0.0035449077018 0.0035449077018 
0.0035449077018 0.0035449077018 0.0028067133835 0.0028049791377 0.0035449077018 0.0035449077018 0.0035449077018 0.0031759388611 0.003147805284 
0.0031363736332 0.0031207126287 0.0031207126287 0.0031266868815 0.0031501381857 0.0031417877036 0.0031704349682 0.0031417877036 0.0031704349682 
0.003143924521 0.0031207126287 0.0031501381857 0.0031207126287 0.0031207126287 0.0031501381857 0.0031266868815 0.0031207126287 0.0031266868815 
0.0031704349682 0.0031774472308 0.0035449077018 0.003101507283 0.003101507283 0.0031648919796 0.0031648919796 0.0031409566034 0.0031180073499 
0.003101507283 0.003101507283 0.0031648919796 0.0031648919796 0.0031648919796 0.003101507283 0.0035449077018 0.0035449077018 0.0035449077018 
0.0035449077018 0.0035449077018 0.0035449077018 0.0035449077018 0.0035449077018 0.0035449077018 0.0035449077018 0.0027901332087 0.0035449077018 
0.0035449077018 0.0035449077018 0.0035449077018 0.0035449077018 0.0035449077018 0.0035449077018 0.0035449077018 0.0035449077018 0.0035449077018 
0.0035449077018 0.0035449077018 0.0035449077018 0.0035449077018 0.0035449077018 0.0035449077018 0.0035449077018 0.0035449077018 0.0035449077018 
0.0023787991891 0.013871254233 0.0023787991891 0.0023787991891 0.0023787991891 0.0023787991891 0.0023787991891 0.0023787991891 0.0023787991891 
0.0023787991891 0.04541741581 0.0023787991891 0.0023787991891 0.0023787991891 0.0023787991891 0.0023787991891 0.0023787991891 0.0023787991891 
0.0023787991891 0.04541741581 0.0023787991891 0.0023787991891 0.013871254233 0.0023787991891 0.0023738810557 0.0023738810557 0.0023738810557 
0.0023738810557 0.0023630254069 0.0023630254069 0.0023625106167 0.0023625106167 0.0035449077018 0.0030921229272 0.003089009197 0.0035449077018 
0.0035449077018 0.0035449077018 0.0035449077018 0.0035449077018 0.0035449077018 0.0035449077018 0.0035449077018 0.0035449077018 0.0035449077018 
0.0030146173021 0.0035449077018 0.0035449077018 0.0035449077018 0.0030230267492 0.0035449077018 0.0035449077018 0.0035449077018 0.0035449077018 
0.0029821601781 0.0031809054877 0.0029844295663 0.0035449077018 0.0035449077018 0.0035449077018 0.0035449077018 0.0029869582496 0.0027454491301 
0.0035449077018 0.0035449077018 0.0035449077018 0.0030109559316 0.0030109559316 0.0029902136208 0.0030109559316 0.0029902136208 0.0030109559316 
0.0029923265349 0.0029902136208 0.0029902136208 0.0029902136208 0.0030109559316 0.0030026016461 0.0035449077018 0.0035449077018 0.0035449077018 
0.0035449077018 0.0030605824312 0.0030155977462 0.0030521648065 0.017444928148 0.0030521648065 0.0030521648065 0.0030521648065 0.0030521648065 
0.0030521648065 0.0030521648065 0.017444928148 0.0030521648065 0.0030521648065 0.0030521648065 0.0035449077018 0.0035449077018 0.0035449077018 
0.0035449077018 0.0035449077018 0.0035449077018 0.0035449077018 0.0035449077018 0.0032342857577 0.0032706237648 0.0035449077018 0.0035449077018 
0.0035449077018 0.0035449077018 0.0035449077018 0.0035449077018 0.0035449077018 0.0035449077018 0.0035449077018 0.0035449077018 0.0035449077018 
0.0035449077018 0.0035449077018 0.0035449077018 0.0035449077018 0.0035449077018 0.0035449077018 0.0035449077018 0.0035449077018 0.0035449077018 
0.0035449077018 0.0035449077018 0.0035449077018 0.0035449077018 0.0035449077018 0.0035449077018 0.0035449077018 0.0035449077018 0.0035449077018 
0.0035449077018 0.0035449077018 0.0035449077018 0.0035449077018 0.0035449077018 0.0035449077018 0.0035449077018 0.0035449077018 0.0035449077018 
0.0035449077018 0.0035449077018 0.0035449077018 0.0035449077018 0.0035449077018 0.002961082474 0.0029637634792 0.0035449077018 0.0035449077018 
0.0035449077018 0.0035449077018 0.0035449077018 0.0035449077018 0.0035449077018 0.0035449077018 0.0035449077018 0.0035449077018 0.0035449077018 
0.0035449077018 0.0035449077018 0.0035449077018 0.0035449077018 0.0035449077018 0.0035449077018 0.0035449077018 0.0035449077018 0.040100880107 
0.0028429905835 0.0027766526171 0.0027766526171 0.0023738810557 0.0023738810557 0.0023738810557 0.045619029076 0.013946827995 0.0023738810557 
0.013946827995 0.045619029076 0.0030286047012 0.018089966783 0.018089966783 0.0030286047012 0.0035449077018 0.0035449077018 0.0035449077018 
0.0035449077018 0.0029421093841 0.0029420207392 0.0029420207392 0.0029421093841 0.0035449077018 0.0035449077018 0.0028401787961 0.002839858641 
0.045403464121 0.0027766526171 0.0023738810557 0.0023738810557 0.045619029076 0.013946827995 0.013946827995 0.0023738810557 0.0023738810557 
0.045619029076 0.0030254642257 0.0030251045521 0.0030254642257 0.0030251045521 0.0035449077018 0.0035449077018 0.0035449077018 0.0035449077018 
0.02055142224 0.020550146409 0.0029420424581 0.0029420876852 0.0035449077018 0.0035449077018 0.0028484065571 0.040163118311 0.0027766526171 
0.0027766526171 0.0023738810557 0.013946827995 0.0023738810557 0.045619029076 0.0023738810557 0.045619029076 0.0023738810557 0.013946827995 
0.018117394525 0.0030345640203 0.0030345640203 0.018117394525 0.0035449077018 0.0035449077018 0.0035449077018 0.0035449077018 0.0029424665532 
0.002941661367 0.002941661367 0.0029424665532 
POINT_DATA 565
FIELD FieldData 1
radiation%20flux%20density 1 565 double
0.0035449077018 0.0035449077018 0.0035449077018 0.0035449077018 0.0024064551521 0.0022198906673 0.001409322496 0.0023985230274 0.001409322496 
0.0023985230274 0.0024064551521 0.0022198906673 0.0014080929626 0.0024000528499 0.0022194161312 0.0014080929626 0.0014080929626 0.0024000528499 
0.002203548083 0.0014068634293 0.0014041495171 0.0023981074697 0.081261343109 0.081261343109 0.0023902747532 0.0014052503529 0.0014080929626 
0.0024000528499 0.0022194161312 0.0014080929626 0.0022122869737 0.0024092648021 0.0022198906673 0.0023600404863 0.0024064551521 0.0022070732625 
0.081295991488 0.081295991488 0.0035449077018 0.0035449077018 0.0035449077018 0.0035449077018 0.0035449077018 0.0035449077018 0.0035449077018 
0.0035449077018 0.0035449077018 0.0035449077018 0.0035449077018 0.0035449077018 0.0035449077018 0.0035449077018 0.0035449077018 0.0035449077018 
0.0035449077018 0.0035449077018 0.0035449077018 0.0035449077018 0.0035449077018 0.0035449077018 0.0035449077018 0.0035449077018 0.0035449077018 
0.0035449077018 0.0035449077018 0.0035449077018 0.0035449077018 0.0035449077018 0.0035449077018 0.0035449077018 0.0035449077018 0.0035449077018 
0.0035449077018 0.0035449077018 0.0035449077018 0.0035449077018 0.0035449077018 0.0035449077018 0.0035449077018 0.0035449077018 0.0035449077018 
0.0035449077018 0.0035449077018 0.0035449077018 0.0035449077018 0.0035449077018 0.0035449077018 0.0035449077018 0.0035449077018 0.0035449077018 
0.0035449077018 0.0035449077018 0.0035449077018 0.0035449077018 0.0035449077018 0.0035449077018 0.0035449077018 0.0035449077018 0.0035449077018 
0.0035449077018 0.0035449077018 0.0035449077018 0.0035449077018 0.0035449077018 0.0035449077018 0.0035449077018 0.0016537988212 0.0016463705975 
0.0016569568007 0.0015453529099 0.0015446288709 0.0016418524852 0.0016521096737 0.0016581473822 0.001539430547 0.0016366616991 0.0016573004598 
0.001663345706 0.0016486392024 0.001641203441 0.0016621239573 0.0015505125286 0.0015592051341 0.0015592051341 0.001544621333 0.001641860023 
0.0016433584622 0.001641203441 0.0016621239573 0.0015505125286 0.0015595420321 0.0015595420321 0.0015647328182 0.001564740356 0.001539430547 
0.0016366616991 0.0016485180809 0.0016463705975 0.0016573124201 0.0015612076883 0.0015310242825 0.0015305774483 0.0015547967024 0.0016597985252 
0.001648506749 0.0034580339791 0.158825969 0.158825969 0.0034605709147 0.0016459915997 0.0016517858847 0.001546170329 0.0015646696735 
0.0015648038712 0.001539430547 0.0016366616991 0.0016485180809 0.0016463705975 0.0016569568007 0.0015453529099 0.0015647439758 0.0015647292017 