# vtk DataFile Version 4.2
vtk output
ASCII
DATASET UNSTRUCTURED_GRID
POINTS 4337 double
0 0 0 1 0 0 1 1 0 
0 1 0 0.016666666667 0 0 0.033333333333 0 0 
0.05 0 0 0.066666666667 0 0 0.083333333333 0 0 
0.1 0 0 0.11666666667 0 0 0.13333333333 0 0 
0.15 0 0 0.16666666667 0 0 0.18333333333 0 0 
0.2 0 0 0.21666666667 0 0 0.23333333333 0 0 
0.25 0 0 0.26666666667 0 0 0.28333333333 0 0 
0.3 0 0 0.31666666667 0 0 0.33333333333 0 0 
0.35 0 0 0.36666666667 0 0 0.38333333333 0 0 
0.4 0 0 0.41666666667 0 0 0.43333333333 0 0 
0.45 0 0 0.46666666667 0 0 0.48333333333 0 0 
0.5 0 0 0.51666666667 0 0 0.53333333333 0 0 
0.55 0 0 0.56666666667 0 0 0.58333333333 0 0 
0.6 0 0 0.61666666667 0 0 0.63333333333 0 0 
0.65 0 0 0.66666666667 0 0 0.68333333333 0 0 
0.7 0 0 0.71666666667 0 0 0.73333333333 0 0 
0.75 0 0 0.76666666667 0 0 0.78333333333 0 0 
0.8 0 0 0.81666666667 0 0 0.83333333333 0 0 
0.85 0 0 0.86666666667 0 0 0.88333333333 0 0 
0.9 0 0 0.91666666667 0 0 0.93333333333 0 0 
0.95 0 0 0.96666666667 0 0 0.98333333333 0 0 
1 0.016666666667 0 1 0.033333333333 0 1 0.05 0 
1 0.066666666667 0 1 0.083333333333 0 1 0.1 0 
1 0.11666666667 0 1 0.13333333333 0 1 0.15 0 
1 0.16666666667 0 1 0.18333333333 0 1 0.2 0 
1 0.21666666667 0 1 0.23333333333 0 1 0.25 0 
1 0.26666666667 0 1 0.28333333333 0 1 0.3 0 
1 0.31666666667 0 1 0.33333333333 0 1 0.35 0 
1 0.36666666667 0 1 0.38333333333 0 1 0.4 0 
1 0.41666666667 0 1 0.43333333333 0 1 0.45 0 
1 0.46666666667 0 1 0.48333333333 0 1 0.5 0 
1 0.51666666667 0 1 0.53333333333 0 1 0.55 0 
1 0.56666666667 0 1 0.58333333333 0 1 0.6 0 
1 0.61666666667 0 1 0.63333333333 0 1 0.65 0 
1 0.66666666667 0 1 0.68333333333 0 1 0.7 0 
1 0.71666666667 0 1 0.73333333333 0 1 0.75 0 
1 0.76666666667 0 1 0.78333333333 0 1 0.8 0 
1 0.81666666667 0 1 0.83333333333 0 1 0.85 0 
1 0.86666666667 0 1 0.88333333333 0 1 0.9 0 
1 0.91666666667 0 1 0.93333333333 0 1 0.95 0 
1 0.96666666667 0 1 0.98333333333 0 0.98333333333 1 0 
0.96666666667 1 0 0.95 1 0 0.93333333333 1 0 
0.91666666667 1 0 0.9 1 0 0.88333333333 1 0 
0.86666666667 1 0 0.85 1 0 0.83333333333 1 0 
0.81666666667 1 0 0.8 1 0 0.78333333333 1 0 
0.76666666667 1 0 0.75 1 0 0.73333333333 1 0 
0.71666666667 1 0 0.7 1 0 0.68333333333 1 0 
0.66666666667 1 0 0.65 1 0 0.63333333333 1 0 
0.61666666667 1 0 0.6 1 0 0.58333333333 1 0 
0.56666666667 1 0 0.55 1 0 0.53333333333 1 0 
0.51666666667 1 0 0.5 1 0 0.48333333333 1 0 
0.46666666667 1 0 0.45 1 0 0.43333333333 1 0 
0.41666666667 1 0 0.4 1 0 0.38333333333 1 0 
0.36666666667 1 0 0.35 1 0 0.33333333333 1 0 
0.31666666667 1 0 0.3 1 0 0.28333333333 1 0 
0.26666666667 1 0 0.25 1 0 0.23333333333 1 0 
0.21666666667 1 0 0.2 1 0 0.18333333333 1 0 
0.16666666667 1 0 0.15 1 0 0.13333333333 1 0 
0.11666666667 1 0 0.1 1 0 0.083333333333 1 0 
0.066666666667 1 0 0.05 1 0 0.033333333333 1 0 
0.016666666667 1 0 0 0.98333333333 0 0 0.96666666667 0 
0 0.95 0 0 0.93333333333 0 0 0.91666666667 0 
0 0.9 0 0 0.88333333333 0 0 0.86666666667 0 
0 0.85 0 0 0.83333333333 0 0 0.81666666667 0 
0 0.8 0 0 0.78333333333 0 0 0.76666666667 0 
0 0.75 0 0 0.73333333333 0 0 0.71666666667 0 
0 0.7 0 0 0.68333333333 0 0 0.66666666667 0 
0 0.65 0 0 0.63333333333 0 0 0.61666666667 0 
0 0.6 0 0 0.58333333333 0 0 0.56666666667 0 
0 0.55 0 0 0.53333333333 0 0 0.51666666667 0 
0 0.5 0 0 0.48333333333 0 0 0.46666666667 0 
0 0.45 0 0 0.43333333333 0 0 0.41666666667 0 
0 0.4 0 0 0.38333333333 0 0 0.36666666667 0 
0 0.35 0 0 0.33333333333 0 0 0.31666666667 0 
0 0.3 0 0 0.28333333333 0 0 0.26666666667 0 
0 0.25 0 0 0.23333333333 0 0 0.21666666667 0 
0 0.2 0 0 0.18333333333 0 0 0.16666666667 0 
0 0.15 0 0 0.13333333333 0 0 0.11666666667 0 
0 0.1 0 0 0.083333333333 0 0 0.066666666667 0 
0 0.05 0 0 0.033333333333 0 0 0.016666666667 0 
0.49166666667 0.98556624327 0 0.015226257951 0.49094414802 0 0.50833333333 0.01443375673 0 
0.98498566592 0.50869210525 0 0.39166666667 0.013182344919 0 0.014092194546 0.60771341243 0 
0.9840923776 0.39277745592 0 0.60833333333 0.98556624327 0 0.62525551531 0.014403078076 0 
0.014524354383 0.37488711367 0 0.98506695639 0.62483997793 0 0.375 0.98556624327 0 
0.29266828667 0.015774730045 0 0.98497301309 0.28990572128 0 0.70833333333 0.98556624327 0 
0.015390011072 0.70991624931 0 0.98676082106 0.72412772914 0 0.275 0.98556624327 0 
0.72541734167 0.012972421589 0 0.014904175112 0.2739124525 0 0.20833333333 0.01443375673 0 
0.79166666667 0.98556624327 0 0.98509148771 0.20956900989 0 0.01443375673 0.79166666667 0 
0.80833333333 0.01443375673 0 0.015124185708 0.19161866647 0 0.9850438905 0.80751432539 0 
0.19166666667 0.98556624327 0 0.85833333333 0.98556624327 0 0.014121029014 0.85833333333 0 
0.14166666667 0.01443375673 0 0.98759019215 0.14143693021 0 0.98556624327 0.875 0 
0.125 0.98556624327 0 0.87458265833 0.012972421589 0 0.01443375673 0.125 0 
0.98622299433 0.55822453833 0 0.54166666667 0.98556624327 0 0.425 0.98556624327 0 
0.325 0.98556624327 0 0.01443375673 0.44166666667 0 0.98640722406 0.67473971232 0 
0.575 0.01443375673 0 0.015869085572 0.53996752425 0 0.014840310146 0.32578846252 0 
0.675 0.01443375673 0 0.98536405319 0.34189743683 0 0.65833333333 0.98556624327 0 
0.98556624327 0.44166666667 0 0.015840429884 0.65614545051 0 0.341249325 0.012959117371 0 
0.44208400834 0.012972421589 0 0.015591057985 0.9104940068 0 0.90833333333 0.98556624327 0 
0.091666666667 0.01443375673 0 0.98502898658 0.093356035331 0 0.075 0.98556624327 0 
0.98512737035 0.92400478862 0 0.92486963505 0.014422260192 0 0.015067916236 0.075447124014 0 
0.94166666667 0.98556624327 0 0.014809050345 0.94182003332 0 0.98415303694 0.77243133732 0 
0.98670026381 0.84271289566 0 0.74166666667 0.98556624327 0 0.225 0.98556624327 0 
0.15833333333 0.98556624327 0 0.98502738383 0.057338738873 0 0.575 0.98556624327 0 
0.75833333333 0.01443375673 0 0.014488033782 0.24102048943 0 0.84166666667 0.01443375673 0 
0.015845777768 0.16042556336 0 0.01138198052 0.40795855664 0 0.825 0.98556624327 0 
0.54166666667 0.01443375673 0 0.45833333333 0.98556624327 0 0.98440739531 0.59321126922 0 
0.98426199828 0.47737493267 0 0.057749054996 0.014096423475 0 0.98589314221 0.17443379443 0 
0.01443375673 0.825 0 0.014673219727 0.74089537493 0 0.175 0.013551549901 0 
0.01443375673 0.575 0 0.98529504721 0.25833515233 0 0.475 0.01443375673 0 
0.24179703162 0.014422260192 0 0.98506173125 0.95977876091 0 0.041802883627 0.98564488817 0 
0.95829189206 0.013946587987 0 0.015287717588 0.043965525831 0 0.97492937718 0.98588713258 0 
0.015094954124 0.97346957302 0 0.9838998273 0.024922079696 0 0.025070622821 0.014112867418 0 
0.925 0.98556624327 0 0.91666666667 0.97113248654 0 0.9 0.97113248654 0 
0.90833333333 0.95669872981 0 0.89166666667 0.95669872981 0 0.9 0.94226497308 0 
0.88333333333 0.94226497308 0 0.89166666667 0.92783121635 0 0.875 0.92783121635 0 
0.88333333333 0.91339745962 0 0.86666666667 0.91339745962 0 0.875 0.89896370289 0 
0.85833333333 0.89896370289 0 0.86666666667 0.88452994616 0 0.85 0.88452994616 0 
0.85833333333 0.87009618943 0 0.84166666667 0.87009618943 0 0.85 0.8556624327 0 
0.83333333333 0.8556624327 0 0.84166666667 0.84122867597 0 0.825 0.84122867597 0 
0.83333333333 0.82679491924 0 0.81666666667 0.82679491924 0 0.825 0.81236116251 0 
0.80833333333 0.81236116251 0 0.81666666667 0.79792740578 0 0.8 0.79792740578 0 
0.80833333333 0.78349364905 0 0.79166666667 0.78349364905 0 0.8 0.76905989232 0 
0.78333333333 0.76905989232 0 0.79166666667 0.75462613559 0 0.775 0.75462613559 0 
0.78333333333 0.74019237886 0 0.76666666667 0.74019237886 0 0.775 0.72575862213 0 
0.75833333333 0.72575862213 0 0.76666666667 0.71132486541 0 0.75 0.71132486541 0 
0.75833333333 0.69689110868 0 0.74166666667 0.69689110868 0 0.75 0.68245735195 0 
0.73333333333 0.68245735195 0 0.74166666667 0.66802359522 0 0.725 0.66802359522 0 
0.73333333333 0.65358983849 0 0.71666666667 0.65358983849 0 0.725 0.63915608176 0 
0.70833333333 0.63915608176 0 0.71666666667 0.62472232503 0 0.7 0.62472232503 0 
0.70833333333 0.6102885683 0 0.69166666667 0.6102885683 0 0.7 0.59585481157 0 
0.68333333333 0.59585481157 0 0.69166666667 0.58142105484 0 0.675 0.58142105484 0 
0.68333333333 0.56698729811 0 0.66666666667 0.56698729811 0 0.675 0.55255354138 0 
0.65833333333 0.55255354138 0 0.65 0.56698729811 0 0.64166666667 0.55255354138 0 
0.63333333333 0.56698729811 0 0.625 0.55255354138 0 0.61666666667 0.56698729811 0 
0.60833333333 0.55255354138 0 0.6 0.56698729811 0 0.59166666667 0.55255354138 0 
0.58333333333 0.56698729811 0 0.575 0.55255354138 0 0.56666666667 0.56698729811 0 
0.55833333333 0.55255354138 0 0.55 0.56698729811 0 0.54166666667 0.55255354138 0 
0.53333333333 0.56698729811 0 0.525 0.55255354138 0 0.51666666667 0.56698729811 0 
0.50833333333 0.55255354138 0 0.65 0.53811978465 0 0.53333333333 0.53811978465 0 
0.5 0.56698729811 0 0.49166666667 0.55255354138 0 0.48333333333 0.56698729811 0 
0.475 0.55255354138 0 0.46666666667 0.56698729811 0 0.45833333333 0.55255354138 0 
0.45 0.56698729811 0 0.44166666667 0.55255354138 0 0.45 0.53811978465 0 
0.43333333333 0.56698729811 0 0.43333333333 0.53811978465 0 0.44166666667 0.52368602792 0 
0.425 0.52368602792 0 0.43333333333 0.50925227119 0 0.41666666667 0.50925227119 0 
0.425 0.49481851446 0 0.40833333333 0.49481851446 0 0.41666666667 0.48038475773 0 
0.4 0.48038475773 0 0.40833333333 0.465951001 0 0.525 0.58142105484 0 
0.44166666667 0.58142105484 0 0.425 0.58142105484 0 0.39166666667 0.465951001 0 
0.4 0.45151724427 0 0.38333333333 0.45151724427 0 0.39166666667 0.43708348754 0 
0.38333333333 0.48038475773 0 0.43333333333 0.59585481157 0 0.41666666667 0.59585481157 0 
0.375 0.43708348754 0 0.38333333333 0.42264973081 0 0.4 0.42264973081 0 
0.39166666667 0.40821597408 0 0.40833333333 0.40821597408 0 0.375 0.40821597408 0 
0.725 0.69689110868 0 0.38333333333 0.39378221735 0 0.36666666667 0.39378221735 0 
0.425 0.6102885683 0 0.40833333333 0.6102885683 0 0.375 0.37934846062 0 
0.35833333333 0.37934846062 0 0.41666666667 0.62472232503 0 0.4 0.62472232503 0 
[...]
CELL_DATA 8432
FIELD FieldData 1
flux 1 8432 double
0.1 0.1 0.1 0.1 0.1 0.1 0.1 0.1 0.1 
0.1 0.1 0.1 0.1 0.1 0.1 0.1 0.1 0.1 
0.1 0.1 0.1 0.1 0.1 0.1 0.1 0.1 0.1 
0.1 0.1 0.1 0.1 0.1 0.1 0.1 0.1 0.1 
0.1 0.1 0.1 0.1 0.1 0.1 0.1 0.1 0.1 
0.1 0.1 0.1 0.1 0.1 0.1 0.1 0.1 0.1 
0.1 0.1 0.1 0.1 0.1 0.1 0.1 0.1 0.1 
0.1 0.1 0.1 0.1 0.1 0.1 0.1 0.1 0.1 
0.1 0.1 0.1 0.1 0.1 0.1 0.1 0.1 0.1 
0.1 0.1 0.1 0.1 0.1 0.1 0.1 0.1 0.1 
0.1 0.1 0.1 0.1 0.1 0.1 0.1 0.1 0.1 
0.1 0.1 0.1 0.1 0.1 0.1 0.1 0.1 0.1 
0.1 0.1 0.1 0.1 0.1 0.1 0.1 0.1 0.1 
0.1 0.1 0.1 0.1 0.1 0.1 0.1 0.1 0.1 
0.1 0.1 0.1 0.1 0.1 0.1 0.1 0.1 0.1 
0.1 0.1 0.1 0.1 0.1 0.1 0.1 0.1 0.1 
0.1 0.1 0.1 0.1 0.1 0.1 0.1 0.1 0.1 
0.1 0.1 0.1 0.1 0.1 0.1 0.1 0.1 0.1 
0.1 0.1 0.1 0.1 0.1 0.1 0.1 0.1 0.1 
0.1 0.1 0.1 0.1 0.1 0.1 0.1 0.1 0.1 
0.1 0.1 0.1 0.1 0.1 0.1 0.1 0.1 0.1 
0.1 0.1 0.1 0.1 0.1 0.1 0.1 0.1 0.1 
0.1 0.1 0.1 0.1 0.1 0.1 0.1 0.11400284599 0.1 
0.1 0.1 0.1 0.1 0.1 0.1 0.1 0.1 0.1 
0.1 0.1 0.1 0.1 0.1 0.1 0.1 0.1 0.1 
0.1 0.1 0.1 0.1 0.1 0.1 0.1 0.1 0.1 
0.1 0.1 0.1 0.1 0.1 0.1 0.1 0.1 0.1 
0.1 0.1 0.1 0.1 0.1 0.1 0.1 0.1 0.1 
0.1 0.47916376271 0.1 0.1 0.1 0.1 0.1 0.1 0.1 
0.1 0.1 0.1 0.1 0.1 0.1 0.1 0.20392156863 0.1 
0.1 0.1 0.1 0.1 0.20392156863 0.98466853322 0.1 0.1 0.1 
0.1 0.20392156863 0.1 0.1 0.1 0.20392156863 0.20392156863 0.20392156863 0.1 
0.20392156863 0.1 0.20392156863 0.20392156863 0.1 0.20392156863 0.20392156863 0.1 0.1 
0.20392156863 0.1 0.1 0.20392156863 0.20392156863 0.20392156863 0.20392156863 0.1 0.1 
0.20392156863 0.1 0.20392156863 0.20392156863 0.20392156863 0.20392156863 0.1 0.1 0.1 
0.20392156863 0.1 0.1 0.1 0.20392156863 0.1 0.20392156863 0.58978469423 0.20392156863 
1.0095291356 0.1 0.1 0.20392156863 0.20392156863 0.20392156863 0.1 0.20392156863 0.20392156863 
0.1 0.20392156863 0.1 0.1 0.1 0.20392156863 1.0090075141 0.20392156863 0.20392156863 
0.1 0.20392156863 0.20392156863 0.1 0.1 0.20392156863 0.20392156863 0.1 0.20392156863 
0.1 0.1 0.20392156863 0.20392156863 0.1 0.1 0.1 0.20392156863 0.20392156863 
0.1 0.20392156863 0.20392156863 0.1 0.1 0.1 0.1 0.1 0.20392156863 
0.1 0.1 0.20392156863 0.1 0.20392156863 0.20392156863 0.20392156863 0.1 0.1 
0.1 0.20392156863 0.20392156863 0.1 0.20392156863 0.1 0.1 0.1 0.1 
0.1 0.1 0.1 0.1 0.20392156863 0.1 0.20392156863 1 0.1 
0.1 0.20392156863 1 0.1 0.1 0.1 0.1 0.20392156863 0.1 
0.32660130246 0.20392156863 0.1 0.1 0.1 0.1 0.1 0.1 0.1 
0.1 0.20392156863 0.1 0.1 0.1 0.20392156863 0.1 0.20392156863 0.1 
0.20392156863 0.20392156863 0.9943346794 0.20392156863 0.1 0.1 0.1 0.1 0.95132762267 
0.1 0.1 0.1 0.1 0.20392156863 0.1 0.1 0.1 1 
0.20392156863 0.1 0.20392156863 0.20392156863 0.1 0.1 1 0.20392156863 0.20392156863 
0.1 0.1 0.1 0.1 0.20392156863 0.1 0.1 0.1 0.1 
0.20392156863 0.1 0.20392156863 0.1 0.91680131055 0.20392156863 0.1 0.1 0.1 
0.1 0.1 0.1 0.1 0.1 0.20392156863 0.20392156863 0.1 1.0001563109 
0.1 0.1 0.1 0.20392156863 0.1 0.1 0.20392156863 0.20392156863 0.20392156863 
0.20392156863 0.1 0.1 0.1 0.1 0.1 0.20392156863 0.1 0.20392156863 
0.20392156863 0.1 0.1 0.1 0.1 0.20392156863 0.1 0.1 1.0182940461 
0.20392156863 0.1 0.20392156863 0.20392156863 0.20392156863 0.1 0.20392156863 0.1 0.1 
0.1 0.20392156863 0.20392156863 0.1 0.1 0.1 0.1 0.1 0.1 
0.20392156863 0.1 0.1 0.1 0.1 0.20392156863 0.20392156863 0.1 0.20392156863 
0.20392156863 1 0.1 0.1 0.20392156863 0.1 0.20392156863 0.1 0.1 
0.1 0.20290874367 0.20392156863 0.20392156863 0.1 0.1 0.1 0.20392156863 0.1 
0.1 0.20392156863 0.20392156863 0.20392156863 0.1 0.1 0.1 1 0.20392156863 
0.20392156863 0.20392156863 0.20392156863 0.20392156863 0.1 0.1 0.20392156863 0.1 0.1 
0.1 0.1 0.20392156863 0.1 0.20392156863 0.1 0.1 0.1 1 
0.1 0.1 0.1 0.1 0.1 0.20392156863 0.20392156863 0.89405068619 0.1 
0.20392156863 0.20392156863 0.1 0.1 0.1 0.20392156863 0.20392156863 0.1 0.1 
1 0.20392156863 0.1 0.1 0.1 1.0035401484 0.1 0.20392156863 0.20392156863 
0.1 0.4499822168 0.1 0.1 0.20392156863 0.20392156863 0.20392156863 0.20392156863 0.20392156863 
1.0049395042 0.36887889076 0.1 0.1 0.1 0.20392156863 0.20392156863 0.1 0.1 
0.1 0.25857265179 0.1 0.20392156863 0.1 0.1 0.1 0.1 0.1 
0.1 0.1 0.1 0.20392156863 0.1 0.1 0.1 0.1 0.1 
0.1 0.1 0.1 0.1 0.1 1 0.20392156863 0.20392156863 0.1 
0.1 0.20392156863 0.1 0.1 0.20392156863 0.20392156863 0.20392156863 0.1 0.1 
0.1 0.1 0.1 0.1 0.1 0.20392156863 0.20392156863 0.20392156863 0.1 
0.20392156863 1 0.20392156863 0.1 0.1 0.1 0.20392156863 0.1 0.20392156863 
0.20392156863 0.1 0.1 0.1 0.1 0.1 0.1 0.90297899435 0.20392156863 
0.20392156863 0.20392156863 0.1 0.20392156863 0.20392156863 0.1 0.1 0.1 0.20392156863 
0.20392156863 0.20392156863 1.0178508272 0.1 0.1 0.20392156863 0.1 0.1 0.1 
0.1 0.1 0.1 0.20392156863 0.1 0.1 0.32751308506 0.20392156863 0.1 
0.20392156863 0.1 0.20392156863 0.1 0.1 0.1 0.99999150202 0.20392156863 0.20392156863 
0.20392156863 0.1 0.1 0.20392156863 0.1 0.20392156863 0.1 0.1 0.1 
0.20392156863 0.1 0.20392156863 0.1 0.1 0.1 1 0.1 0.1 
0.1 0.1 1 0.1 0.1 0.20392156863 0.1 0.20392156863 0.1 
0.1 0.1 0.20392156863 0.1 0.1 0.1 0.1 0.20392156863 0.20392156863 
0.20392156863 0.20392156863 0.1 1 0.1 0.93347764382 0.1 0.1 0.20392156863 
0.1 0.1 0.1 0.1 0.1 0.1 0.1 0.20392156863 0.20392156863 
0.1 0.1 0.1 0.1 0.1 0.20392156863 0.1 0.1 1.0002865624 
0.1 0.20392156863 0.1 0.1 1 0.1 0.20392156863 0.1 0.1 
0.1 0.20392156863 0.1 0.20392156863 0.1 0.1 0.20392156863 0.1 0.1 
0.1 0.1 0.1 0.1 0.20392156863 0.20392156863 0.1 0.1 0.20392156863 
0.1 0.27465723883 0.1 0.1 0.1 0.1 0.1 0.20392156863 0.1 
0.1 0.1 0.1 0.1 0.1 0.20392156863 0.1 0.20392156863 0.1 
0.1 0.1 0.20392156863 0.20392156863 0.20392156863 0.1 0.1 0.20392156863 0.1 
0.20392156863 0.20392156863 0.20392156863 0.1 0.1 0.1 0.99975185697 0.1 0.1 
0.20392156863 0.20392156863 0.20392156863 0.1 0.1 0.1 0.1 1.0000896101 0.20392156863 
0.20392156863 0.1 0.1 0.1 0.1 0.1 0.20392156863 0.1 0.1 
0.20392156863 0.1 0.1 0.1 1.0003644507 0.1 0.1 0.1 0.1 
0.26868886125 0.1 0.43085426058 0.1 0.1 0.1 0.1 0.1 0.1 
0.1 0.1 0.1 0.1 0.1 0.20392156863 1.0040189822 0.1 0.20392156863 
1 0.1 0.1 0.1 0.1 0.20392156863 0.1 0.1 0.20392156863 
0.1 0.1 0.1 0.20392156863 0.1 0.20392156863 0.20392156863 0.20392156863 0.20392156863 
1.0027815295 0.20392156863 0.1 0.1 0.1 0.1 0.99997921671 0.1 0.26537333226 
0.1 1 0.20392156863 0.20392156863 0.1 0.1 0.20392156863 0.46731347484 0.20392156863 
0.1 0.1 1 0.1 0.30196078431 0.20392156863 0.20392156863 0.1 0.1 
0.1 0.1 0.1 0.1 0.1 0.1 0.20392156863 0.20392156863 0.1 
0.20392156863 0.1 0.20392156863 0.1 0.20392156863 0.20392156863 0.1 0.1 0.20392156863 
0.20392156863 0.1 0.1 0.1 0.20392156863 1 0.1 0.98548932556 0.1 
0.1 0.20392156863 0.1 0.1 0.1 0.83488365652 0.1 0.1 0.1 
0.20392156863 0.1 0.20392156863 0.1 0.1 0.1 0.1 0.1 0.1 
0.20392156863 0.1 0.20392156863 0.1 0.20392156863 0.40725269224 0.1 0.20392156863 0.1 
0.20392156863 0.1 0.1 0.1 0.1 1 0.20392156863 0.1 0.1 
0.1 0.1 0.31363976266 0.1 0.20392156863 0.1 0.1 0.30196078431 0.20392156863 
0.20392156863 0.36905397872 0.1 0.20392156863 0.20392156863 0.1 0.20401187773 0.20392156863 0.20392156863 
0.1 0.1 0.1 0.1 0.1 0.1 0.20392156863 0.1 0.1 
0.1 0.1 0.1 0.1 0.1 0.1 0.1 0.1 0.1 
0.1 1.0013465855 0.1 0.20392156863 0.20392156863 0.1 0.30196078431 0.1 0.1 
0.20392156863 0.1 0.1 0.1 0.20392156863 0.1 0.1 0.1 1.0018979008 
0.1 0.20392156863 0.20392156863 0.1 0.20392156863 0.1 0.1 0.1 0.20392156863 
0.20392156863 0.1 0.20392156863 0.1 0.1 0.1 0.20392156863 0.1 0.20392156863 
0.20392156863 0.91827810682 0.20392156863 1.0102291512 0.1 1 1.0382770124 0.1 0.20392156863 
0.20392156863 0.1 0.1 0.20392156863 0.1 0.20392156863 0.1 0.1 0.1 
0.20392156863 0.20392156863 0.1 0.1 0.1 0.1 0.20392156863 0.20392156863 0.1 
0.1 0.1 0.1 0.20392156863 0.1 0.1 0.1 0.30196078431 0.1 
0.1 0.1 0.1 0.1 0.1 0.1 0.1 0.1 0.1 
0.1 0.1 0.20431015573 0.1 0.1 0.1 0.20392156863 0.1 0.1 
0.1 0.1 0.1 0.1 0.1 0.1 0.30183693356 0.1 0.1 
0.1 1 1 0.1 0.1 0.1 0.20392156863 0.1 1 
0.20392156863 0.1 0.1 0.1 0.1 0.1 0.1 0.1 0.1 
0.1 0.1 0.20392156863 0.20392156863 0.20392156863 0.1 0.1 0.1 0.1 
0.1 0.25770777364 0.1 0.1 0.30196078431 0.30196078431 0.30196078431 0.1 0.20392156863 
0.1 0.20392156863 0.20392156863 0.20392156863 0.20392156863 0.1 0.1 0.20392156863 0.20392156863 
0.1 0.1 0.20392156863 0.1 0.1 0.20392156863 0.20392156863 0.20392156863 0.20392156863 
0.20392156863 0.20392156863 0.1 0.1 0.20392156863 0.20392156863 0.20392156863 0.30196078431 0.20392156863 
0.1 0.1 0.30196078431 0.1 0.20392156863 0.30929905885 0.1 0.20392156863 1 
0.1 0.1 0.1 0.1 0.1 0.1 0.1 0.1 0.1 
0.30196078431 0.20392156863 0.1 0.1 0.1 0.20392156863 0.1 0.1 0.1 
0.20392156863 0.20392156863 0.20392156863 0.20392156863 0.1 0.20392156863 0.1 0.1 0.1 
0.20392156863 0.1 0.20392156863 0.20392156863 0.1 0.1 0.1 0.1 0.1 
0.1 0.1 0.1 0.1 0.1 0.1 0.1 0.20392156863 0.1 
1 0.1 0.20392156863 0.20392156863 0.1 0.1 0.1 0.1 0.1 
0.1 0.1 0.1 0.1 0.1 0.20392156863 0.1 0.1 0.20392156863 
0.1 0.1 0.20392156863 0.1 1 0.20392156863 0.20392156863 0.1 0.20392156863 
0.1 0.30207440179 0.20392156863 0.1 0.1 0.1 0.1 0.20392156863 1 
0.1 0.1 0.1 0.1 0.20392156863 0.1 0.1 0.20392156863 1.0277016059 
0.1 0.20392156863 0.1 0.1 0.20392156863 0.1 0.1 0.1 0.20392156863 
0.1 0.20392156863 0.1 0.1 0.1 0.1 0.1 0.20392156863 0.1 
0.1 0.20392156863 0.1 0.99995007927 0.20392156863 0.1 0.1 0.1 0.20392156863 
0.1 0.1 0.20392156863 0.20392156863 0.20257635164 0.1 0.30196078431 0.20392156863 0.1 
0.20392156863 0.64113100962 0.1 0.20392156863 0.1 0.1 0.20392156863 0.20392156863 0.1 
0.20392156863 0.1 0.20392156863 0.19626955056 0.1 0.20392156863 0.20392156863 0.1 0.20392156863 
0.20392156863 0.1 0.1 0.20392156863 0.20392156863 0.20392156863 0.20392156863 0.1 0.20392156863 
0.1 0.1 0.1 0.20392156863 0.1 0.1 0.1 0.19878100012 0.1 
0.1 0.1 0.20392156863 0.1 0.1 0.1 0.1 0.1 0.30196078431 
0.20392156863 0.20392156863 0.30196078431 0.30196078431 0.1 0.1 0.1 0.1 0.1 
0.1 0.1 0.20392156863 0.1 0.1 0.1 0.20392156863 0.1 0.20392156863 
0.1 0.1 0.1 0.1 0.20392156863 0.1 0.1 0.20392156863 0.20392156863 
0.20392156863 0.20392156863 0.1 0.1 0.1 0.1 0.1 0.1 0.1 
0.20392156863 0.1 1.021963664 0.20392156863 0.20392156863 0.20392156863 0.20392156863 0.1 0.1 
0.1 0.1 0.24390681624 0.1 0.20392156863 0.1 0.1 0.1 0.20392156863 
0.20392156863 0.20392156863 0.1 0.20383127458 1 0.1 0.20392156863 0.1 0.20392156863 
0.1 0.20392156863 0.1 1 0.20392156863 0.30196078431 0.20392156863 0.1 0.20392156863 
0.1 0.20392156863 0.20392156863 0.20392156863 0.19312001074 0.1 0.1 0.1 1.0213511226 
0.1 0.1 0.1 0.20392156863 0.20392156863 0.1 0.1 0.1 0.1 
0.20392156863 0.30196078431 0.90885678324 0.20392156863 0.20392156863 0.1 0.1 0.1 0.1 
0.30196078431 0.20392156863 0.1 0.1 0.20392156863 0.20392156863 0.30196078431 0.30196078431 0.30196078431 
0.20392156863 1 0.1 0.1 0.1 1 0.1 0.1 0.1 
0.20392156863 0.20392156863 0.20392156863 0.1 0.1 0.1 0.1 0.30196078431 0.30196078431 
0.1 0.1 0.20392156863 0.1 0.20392156863 0.1 0.1 0.1 0.20392156863 
0.1 0.20946582597 0.20392156863 0.1 0.1 0.1 0.20392156863 0.20392156863 0.20392156863 
0.20392156863 0.20392156863 0.20392156863 0.1 0.1 0.21643839607 0.1 0.1 0.1 
0.1 0.1 0.20392156863 0.20392156863 0.20392156863 0.30196078431 0.20392156863 1 1 
0.1 0.20392156863 0.1 0.62691746242 1 0.1 0.30196078431 0.1 0.30196078431 
0.1 0.1 0.20392156863 0.1 0.1 0.1 0.1 0.20392156863 0.20392156863 
0.20392156863 0.1 0.30196078431 0.20392156863 0.20392156863 0.1 0.1 1.0067315274 1 
0.1 0.20392156863 0.1 0.26961317815 0.1 0.20392156863 0.1 0.1 0.1 
0.20392156863 0.20392156863 1.013704776 0.4174644125 0.1 0.1 0.20392156863 0.20392156863 0.20392156863 
0.1 0.1 0.1 0.1 0.20392156863 0.20392156863 0.20392156863 0.1 0.20392156863 
0.1 0.1 0.20392156863 0.20392156863 0.20392156863 0.1 0.1 0.1 0.1 
0.1 0.1 0.20392156863 0.20392156863 0.20392156863 0.95299150552 0.1 0.1 0.20392156863 
0.1 1.0075686208 0.1 0.1 0.1 0.20392156863 1 0.20392156863 0.20392156863 
1.0143552958 0.1 0.1 0.20392156863 0.1 0.20392156863 0.20392156863 0.20392156863 0.1 
0.1 0.1 0.20392156863 0.1 0.20392156863 0.20392156863 1 0.1 0.1 
0.1 0.1 0.20392156863 0.20392156863 0.20392156863 0.1 0.20392156863 0.1 0.1 
0.1 0.20392156863 0.1 1 0.99462896486 0.1 0.1 0.1 0.20392156863 
0.1 0.1 0.1 0.1 0.1 0.1 0.1 0.1 0.1 
0.1 0.1 0.1 0.1 0.1 0.1 0.20392156863 0.20392156863 0.1 
0.20392156863 0.1 0.1 0.20392156863 0.1 0.1 0.1 0.30196078431 0.1 
0.1 0.30196078431 0.1 0.1 0.1 0.1 0.1 0.1 0.1 
0.1 0.1 0.1 0.1 0.20392156863 0.20392156863 0.20392156863 0.20392156863 0.20392156863 
0.1 0.1 0.1 0.1 0.1 0.1 1 0.1 0.1 
0.1 0.1 0.1 0.1 0.1 0.20392156863 0.20392156863 0.20392156863 0.20392156863 
0.1 0.20392156863 0.1 0.1 0.20392156863 0.1 0.20392156863 0.30196078431 0.1 
1.0077096712 0.1 0.1 0.1 0.1 0.20392156863 0.20392156863 0.20392156863 0.20392156863 
1.0160738721 1 0.20392156863 1.0133423006 0.1 0.1 0.1 0.1 0.1 
0.1 0.1 0.1 0.1 0.32281550965 0.1 0.1 0.1 0.1 
0.96572524535 0.1 0.1 0.1 0.20392156863 0.1 1.0087149699 0.20392156863 0.1 
0.20392156863 0.30196078431 0.1 0.1 0.1 0.1 0.1 0.1 0.20392156863 
0.1 0.1 0.1 0.20392156863 1.0203773028 0.30196078431 0.20392156863 0.1 0.1 
0.1 0.1 0.20392156863 0.1 0.20392156863 0.1 0.20392156863 0.20392156863 1.024146738 
0.91391362289 1 0.20392156863 0.20392156863 0.20392156863 0.20392156863 0.20392156863 0.1 0.20392156863 
0.20392156863 0.1 0.20392156863 0.1 1 0.1 0.20392156863 0.20392156863 0.1 
0.20392156863 1 0.20392156863 0.1 0.1 0.1 0.20392156863 0.20392156863 0.1 
0.1 0.20392156863 0.1 0.1 0.1 0.20392156863 0.20392156863 0.20392156863 0.20392156863 
0.1 0.30196078431 0.20392156863 0.30196078431 0.9998792299 0.20392156863 0.20392156863 0.1 0.1 
0.20392156863 0.1 0.20392156863 0.30196078431 0.1 0.1 0.1 0.1 0.20392156863 
0.30196078431 0.2006531002 0.1 0.1 0.1 0.1 0.1 0.30196078431 0.1 
0.1 0.20392156863 0.20392156863 0.20392156863 1 0.20392156863 0.30196078431 0.20392156863 0.20392156863 
0.30196078431 0.20392156863 0.1 0.20392156863 1 0.1 0.20392156863 0.20392156863 0.20392156863 
0.20392156863 0.20392156863 0.20392156863 0.1 0.20392156863 0.20392156863 0.20392156863 0.1 0.1 
0.30196078431 0.1 0.30196078431 0.1 0.1 0.20392156863 0.20392156863 0.1 0.1 
0.1 0.20392156863 0.1 0.1 0.1 0.1 0.20392156863 0.1 0.1 
0.30196078431 0.1 0.20392156863 0.1 0.1 0.1 0.20392156863 0.20392156863 0.1 
0.1 1 0.20392156863 0.1 0.1 0.1 0.1 0.1 0.20392156863 
0.20392156863 0.1 0.20392156863 0.20392156863 0.20392156863 0.20392156863 0.1 0.1 0.20392156863 
0.1 0.20392156863 0.20464012297 0.1 0.1 0.1 0.1 0.1 0.23347458651 
0.30196078431 0.1 0.1 0.20392156863 0.20392156863 0.20392156863 0.20392156863 0.20392156863 0.1 
0.1 0.20392156863 1.000118112 0.20392156863 0.1 0.1 0.1 0.1 0.20392156863 
0.26534530113 0.1 0.1 0.1 0.1 0.30196078431 0.1 0.1 0.30196078431 
0.1 1 0.1 0.1 0.1 0.1 0.20392156863 0.20392156863 0.1 
0.1 0.1 0.1 0.1 0.1 0.1 0.1 0.20392156863 0.1 
0.30196078431 0.2169047332 0.20392156863 0.20392156863 0.20392156863 0.1 0.1 0.30192418958 0.1 
0.1 0.1 0.1 0.1 0.1 1.0112045867 0.20392156863 0.20392156863 0.20962234023 
0.1 0.1 0.19841330871 0.20392156863 0.1 0.20392156863 0.20392156863 0.20392156863 1 
0.20392156863 0.20392156863 0.20392156863 0.20392156863 0.30196078431 0.1 0.1 0.20392156863 0.20392156863 
0.30196078431 0.1 0.1 0.1 0.20392156863 0.20392156863 0.20392156863 0.20392156863 0.20392156863 
0.20392156863 0.20392156863 0.1 0.1 0.20392156863 0.30196078431 0.20392156863 0.30196078431 0.1 
0.30196078431 0.20392156863 0.20392156863 0.1 0.20392156863 0.1 0.1 0.79836899803 0.95694328954 
0.20392156863 0.1 0.1 0.1 0.1 0.1 0.1 0.30196078431 0.30196078431 
0.1 0.20392156863 0.1 0.20392156863 0.1 0.30196078431 0.1 0.30196078431 0.1 
1 0.1 0.1 0.1 0.1 1 1 0.1 0.30196078431 
0.1 0.20392156863 0.20392156863 0.20392156863 0.1 0.20392156863 0.20392156863 0.20392156863 0.20392156863 
0.20392156863 0.30196078431 0.30196078431 0.20392156863 1 0.1 0.1 0.20392156863 0.20392156863 
0.20392156863 0.20392156863 0.1 0.20392156863 0.20392156863 0.2697056428 0.1 0.1 0.20392156863 
0.1 0.20392156863 0.1 0.30196078431 0.20392156863 0.1 0.20392156863 0.20638309097 0.30196078431 
0.30196078431 0.1 0.1 0.1 1.0199457807 0.1 0.1 0.1 0.1 
0.1 0.1 0.1 0.1 0.20392156863 0.1 0.1 1 0.1 
0.1 0.20392156863 0.20392156863 0.1 0.1 0.1 0.1 0.1 0.1 
0.20392156863 0.20392156863 0.30196078431 0.30196078431 0.30196078431 1.0073652616 0.90039806425 1 0.1 
0.20392156863 0.20392156863 0.20392156863 0.20392156863 0.20392156863 0.20282214445 0.20392156863 0.30196078431 0.20392156863 
0.20392156863 0.1 0.30196078431 0.1 0.1 0.1 0.1 0.1 0.1 
0.1 0.1 0.1 0.30196078431 0.1 0.1 0.1 0.1 0.1 
0.20392156863 0.1 0.1 0.30196078431 0.20392156863 0.20392156863 1 0.20392156863 0.1 
0.20392156863 0.20392156863 0.1 0.1 0.30196078431 0.1 0.1 0.1 0.20392156863 
0.1 0.20392156863 0.20392156863 0.30196078431 0.1 0.30196078431 0.1 0.20392156863 0.20392156863 
0.20392156863 0.20392156863 0.20392156863 0.1 0.1 0.1 0.1 0.20392156863 0.20392156863 
0.1 0.1 0.1 0.1 0.1 0.1 0.1 0.1 0.1 
0.1 0.1 0.1 0.48744328381 0.20380423672 0.20392156863 0.20392156863 0.20392156863 0.1 
0.1 0.1 1.01001352 0.20392156863 0.30196078431 0.30196078431 0.20392156863 0.1 0.20392156863 
0.20392156863 0.20392156863 0.1 0.1 0.1 0.1 0.1 0.1 0.20392156863 
0.20392156863 0.20392156863 0.20392156863 0.1 0.1 0.20392156863 0.20392156863 0.27470265255 0.1 
0.1 0.1 0.1 0.1 0.1 0.20392156863 0.20392156863 0.1 0.20392156863 
0.20392156863 0.1 0.1 0.1 0.1 0.20392156863 0.1 1 0.1 
0.1 0.1 0.20392156863 0.20392156863 0.1 0.1 1 0.1 0.1 
0.1 1 0.1 0.1 0.1 0.1 0.1 0.20392156863 0.1 
0.20392156863 0.20392156863 0.1 0.20392156863 0.30196078431 1 0.1 0.1 0.1 
0.1 0.20392156863 0.20392156863 0.20392156863 0.20392156863 0.1 0.20392156863 1.0094491828 0.1 
0.1 0.20392156863 1 0.1 0.1 0.1 0.1 0.1 0.1 
0.1 0.1 0.2045249703 0.20392156863 0.20392156863 0.20392156863 0.1 0.1 0.1 
0.20392156863 0.20392156863 0.20424316569 0.1 0.1 0.1 1 0.30196078431 0.1 
0.1 0.1 0.20392156863 0.1 0.1 0.1 1 0.1 0.1 
0.1 0.1 0.1 0.1 0.1 0.1 0.1 0.20388876843 0.1 
0.1 0.1 0.1 0.20392156863 0.20392156863 0.20392156863 0.20392156863 0.20392156863 0.20392156863 
0.1 0.1 0.1 0.1 0.1 0.1 0.1 0.20392156863 0.1 
0.1 0.1 0.1 0.1 0.1 0.20392156863 0.20392156863 0.1 0.1 
0.1 0.20392156863 0.1 0.1 0.1 0.1 0.20392156863 0.20392156863 0.1 
0.20392156863 0.20392156863 0.1 0.20392156863 0.1 0.1 0.1 0.1 0.20392156863 
0.1 0.20392156863 0.1 0.1 0.1 0.30196078431 0.1 0.1 0.1 
0.1 0.20392156863 0.20392156863 0.1 0.1 0.20392156863 0.20392156863 0.20392156863 0.1 
0.1 0.1 0.1 0.1 0.30196078431 0.20392156863 0.20392156863 0.1 0.1 
0.1 0.1 0.20392156863 0.30196078431 0.1 0.20392156863 0.1 0.1 0.1 
0.1 0.20392156863 0.20392156863 0.1 0.1 0.20392156863 0.20025367845 0.1 0.1 
0.1 0.20392156863 0.1 0.20392156863 0.20392156863 0.20392156863 0.1 0.1 0.20392156863 
0.20392156863 0.1 0.20392156863 0.1 0.1 0.1 0.1 0.1 0.1 
0.1 0.1 0.1 0.1 0.1 0.20392156863 0.1 1.0072322463 0.20392156863 
0.20392156863 0.1 0.1 0.1 0.1 0.20392156863 0.20392156863 0.20392156863 0.20392156863 
0.1 0.1 1.0012535824 0.1 0.1 0.1 0.1 0.20392156863 0.1 
0.1 0.1 0.20392156863 0.1 0.20392156863 0.1 0.30196078431 0.20392156863 0.20392156863 
0.1 0.20392156863 0.1 0.1 0.20392156863 0.20699931719 0.1 0.20392156863 0.1 
0.19392278342 0.1 0.1 0.1 0.1 0.20392156863 0.30196078431 0.20392156863 0.20392156863 
0.1 0.1 0.30196078431 0.20392156863 0.1 0.1 0.1 0.1 0.20392156863 
0.20392156863 0.1 0.1 0.1 0.20392156863 0.1 0.1 0.1 0.1 
0.20392156863 0.1 0.1 1.018590104 1 0.1 0.1 0.1 1 
0.1 0.1 0.20377968699 0.1 0.1 0.20392156863 0.1 0.20392156863 0.1 
0.1 0.1 0.1 0.20392156863 0.1 0.20392156863 0.20392156863 0.20392156863 0.20392156863 
0.1 1 0.20392156863 0.20392156863 0.20392156863 0.20392156863 0.20392156863 0.1 0.1 
0.1 0.20392156863 0.20392156863 0.1 0.20392156863 0.20392156863 0.20392156863 0.1 0.1 
0.1 0.1 0.1 0.1 1.0175812525 0.1 0.20392156863 0.1 0.1 
0.1 0.1 0.1 0.20392156863 0.1 0.1 0.20392156863 1 0.1 
0.20392156863 0.1 0.1 0.1 0.1 0.1 0.1 0.1 0.20392156863 
0.30196078431 0.30196078431 0.30130334321 0.30196078431 0.1 0.10196078431 0.1 0.30196078431 0.1 