# vtk DataFile Version 4.2
vtk output
ASCII
DATASET UNSTRUCTURED_GRID
POINTS 4337 double
0 0 0 1 0 0 1 1 0 
0 1 0 0.016666666667 0 0 0.033333333333 0 0 
0.05 0 0 0.066666666667 0 0 0.083333333333 0 0 
0.1 0 0 0.11666666667 0 0 0.13333333333 0 0 
0.15 0 0 0.16666666667 0 0 0.18333333333 0 0 
0.2 0 0 0.21666666667 0 0 0.23333333333 0 0 
0.25 0 0 0.26666666667 0 0 0.28333333333 0 0 
0.3 0 0 0.31666666667 0 0 0.33333333333 0 0 
0.35 0 0 0.36666666667 0 0 0.38333333333 0 0 
0.4 0 0 0.41666666667 0 0 0.43333333333 0 0 
0.45 0 0 0.46666666667 0 0 0.48333333333 0 0 
0.5 0 0 0.51666666667 0 0 0.53333333333 0 0 
0.55 0 0 0.56666666667 0 0 0.58333333333 0 0 
0.6 0 0 0.61666666667 0 0 0.63333333333 0 0 
0.65 0 0 0.66666666667 0 0 0.68333333333 0 0 
0.7 0 0 0.71666666667 0 0 0.73333333333 0 0 
0.75 0 0 0.76666666667 0 0 0.78333333333 0 0 
0.8 0 0 0.81666666667 0 0 0.83333333333 0 0 
0.85 0 0 0.86666666667 0 0 0.88333333333 0 0 
0.9 0 0 0.91666666667 0 0 0.93333333333 0 0 
0.95 0 0 0.96666666667 0 0 0.98333333333 0 0 
1 0.016666666667 0 1 0.033333333333 0 1 0.05 0 
1 0.066666666667 0 1 0.083333333333 0 1 0.1 0 
1 0.11666666667 0 1 0.13333333333 0 1 0.15 0 
1 0.16666666667 0 1 0.18333333333 0 1 0.2 0 
1 0.21666666667 0 1 0.23333333333 0 1 0.25 0 
1 0.26666666667 0 1 0.28333333333 0 1 0.3 0 
1 0.31666666667 0 1 0.33333333333 0 1 0.35 0 
1 0.36666666667 0 1 0.38333333333 0 1 0.4 0 
1 0.41666666667 0 1 0.43333333333 0 1 0.45 0 
1 0.46666666667 0 1 0.48333333333 0 1 0.5 0 
1 0.51666666667 0 1 0.53333333333 0 1 0.55 0 
1 0.56666666667 0 1 0.58333333333 0 1 0.6 0 
1 0.61666666667 0 1 0.63333333333 0 1 0.65 0 
1 0.66666666667 0 1 0.68333333333 0 1 0.7 0 
1 0.71666666667 0 1 0.73333333333 0 1 0.75 0 
1 0.76666666667 0 1 0.78333333333 0 1 0.8 0 
1 0.81666666667 0 1 0.83333333333 0 1 0.85 0 
1 0.86666666667 0 1 0.88333333333 0 1 0.9 0 
1 0.91666666667 0 1 0.93333333333 0 1 0.95 0 
1 0.96666666667 0 1 0.98333333333 0 0.98333333333 1 0 
0.96666666667 1 0 0.95 1 0 0.93333333333 1 0 
0.91666666667 1 0 0.9 1 0 0.88333333333 1 0 
0.86666666667 1 0 0.85 1 0 0.83333333333 1 0 
0.81666666667 1 0 0.8 1 0 0.78333333333 1 0 
0.76666666667 1 0 0.75 1 0 0.73333333333 1 0 
0.71666666667 1 0 0.7 1 0 0.68333333333 1 0 
0.66666666667 1 0 0.65 1 0 0.63333333333 1 0 
0.61666666667 1 0 0.6 1 0 0.58333333333 1 0 
0.56666666667 1 0 0.55 1 0 0.53333333333 1 0 
0.51666666667 1 0 0.5 1 0 0.48333333333 1 0 
0.46666666667 1 0 0.45 1 0 0.43333333333 1 0 
0.41666666667 1 0 0.4 1 0 0.38333333333 1 0 
0.36666666667 1 0 0.35 1 0 0.33333333333 1 0 
0.31666666667 1 0 0.3 1 0 0.28333333333 1 0 
0.26666666667 1 0 0.25 1 0 0.23333333333 1 0 
0.21666666667 1 0 0.2 1 0 0.18333333333 1 0 
0.16666666667 1 0 0.15 1 0 0.13333333333 1 0 
0.11666666667 1 0 0.1 1 0 0.083333333333 1 0 
0.066666666667 1 0 0.05 1 0 0.033333333333 1 0 
0.016666666667 1 0 0 0.98333333333 0 0 0.96666666667 0 
0 0.95 0 0 0.93333333333 0 0 0.91666666667 0 
0 0.9 0 0 0.88333333333 0 0 0.86666666667 0 
0 0.85 0 0 0.83333333333 0 0 0.81666666667 0 
0 0.8 0 0 0.78333333333 0 0 0.76666666667 0 
0 0.75 0 0 0.73333333333 0 0 0.71666666667 0 
0 0.7 0 0 0.68333333333 0 0 0.66666666667 0 
0 0.65 0 0 0.63333333333 0 0 0.61666666667 0 
0 0.6 0 0 0.58333333333 0 0 0.56666666667 0 
0 0.55 0 0 0.53333333333 0 0 0.51666666667 0 
0 0.5 0 0 0.48333333333 0 0 0.46666666667 0 
0 0.45 0 0 0.43333333333 0 0 0.41666666667 0 
0 0.4 0 0 0.38333333333 0 0 0.36666666667 0 
0 0.35 0 0 0.33333333333 0 0 0.31666666667 0 
0 0.3 0 0 0.28333333333 0 0 0.26666666667 0 
0 0.25 0 0 0.23333333333 0 0 0.21666666667 0 
0 0.2 0 0 0.18333333333 0 0 0.16666666667 0 
0 0.15 0 0 0.13333333333 0 0 0.11666666667 0 
0 0.1 0 0 0.083333333333 0 0 0.066666666667 0 
0 0.05 0 0 0.033333333333 0 0 0.016666666667 0 
0.49166666667 0.98556624327 0 0.015226257951 0.49094414802 0 0.50833333333 0.01443375673 0 
0.98498566592 0.50869210525 0 0.39166666667 0.013182344919 0 0.014092194546 0.60771341243 0 
0.9840923776 0.39277745592 0 0.60833333333 0.98556624327 0 0.62525551531 0.014403078076 0 
0.014524354383 0.37488711367 0 0.98506695639 0.62483997793 0 0.375 0.98556624327 0 
0.29266828667 0.015774730045 0 0.98497301309 0.28990572128 0 0.70833333333 0.98556624327 0 
0.015390011072 0.70991624931 0 0.98676082106 0.72412772914 0 0.275 0.98556624327 0 
0.72541734167 0.012972421589 0 0.014904175112 0.2739124525 0 0.20833333333 0.01443375673 0 
0.79166666667 0.98556624327 0 0.98509148771 0.20956900989 0 0.01443375673 0.79166666667 0 
0.80833333333 0.01443375673 0 0.015124185708 0.19161866647 0 0.9850438905 0.80751432539 0 
0.19166666667 0.98556624327 0 0.85833333333 0.98556624327 0 0.014121029014 0.85833333333 0 
0.14166666667 0.01443375673 0 0.98759019215 0.14143693021 0 0.98556624327 0.875 0 
0.125 0.98556624327 0 0.87458265833 0.012972421589 0 0.01443375673 0.125 0 
0.98622299433 0.55822453833 0 0.54166666667 0.98556624327 0 0.425 0.98556624327 0 
0.325 0.98556624327 0 0.01443375673 0.44166666667 0 0.98640722406 0.67473971232 0 
0.575 0.01443375673 0 0.015869085572 0.53996752425 0 0.014840310146 0.32578846252 0 
0.675 0.01443375673 0 0.98536405319 0.34189743683 0 0.65833333333 0.98556624327 0 
0.98556624327 0.44166666667 0 0.015840429884 0.65614545051 0 0.341249325 0.012959117371 0 
0.44208400834 0.012972421589 0 0.015591057985 0.9104940068 0 0.90833333333 0.98556624327 0 
0.091666666667 0.01443375673 0 0.98502898658 0.093356035331 0 0.075 0.98556624327 0 
0.98512737035 0.92400478862 0 0.92486963505 0.014422260192 0 0.015067916236 0.075447124014 0 
0.94166666667 0.98556624327 0 0.014809050345 0.94182003332 0 0.98415303694 0.77243133732 0 
0.98670026381 0.84271289566 0 0.74166666667 0.98556624327 0 0.225 0.98556624327 0 
0.15833333333 0.98556624327 0 0.98502738383 0.057338738873 0 0.575 0.98556624327 0 
0.75833333333 0.01443375673 0 0.014488033782 0.24102048943 0 0.84166666667 0.01443375673 0 
0.015845777768 0.16042556336 0 0.01138198052 0.40795855664 0 0.825 0.98556624327 0 
0.54166666667 0.01443375673 0 0.45833333333 0.98556624327 0 0.98440739531 0.59321126922 0 
0.98426199828 0.47737493267 0 0.057749054996 0.014096423475 0 0.98589314221 0.17443379443 0 
0.01443375673 0.825 0 0.014673219727 0.74089537493 0 0.175 0.013551549901 0 
0.01443375673 0.575 0 0.98529504721 0.25833515233 0 0.475 0.01443375673 0 
0.24179703162 0.014422260192 0 0.98506173125 0.95977876091 0 0.041802883627 0.98564488817 0 
0.95829189206 0.013946587987 0 0.015287717588 0.043965525831 0 0.97492937718 0.98588713258 0 
0.015094954124 0.97346957302 0 0.9838998273 0.024922079696 0 0.025070622821 0.014112867418 0 
0.925 0.98556624327 0 0.91666666667 0.97113248654 0 0.9 0.97113248654 0 
0.90833333333 0.95669872981 0 0.89166666667 0.95669872981 0 0.9 0.94226497308 0 
0.88333333333 0.94226497308 0 0.89166666667 0.92783121635 0 0.875 0.92783121635 0 
0.88333333333 0.91339745962 0 0.86666666667 0.91339745962 0 0.875 0.89896370289 0 
0.85833333333 0.89896370289 0 0.86666666667 0.88452994616 0 0.85 0.88452994616 0 
0.85833333333 0.87009618943 0 0.84166666667 0.87009618943 0 0.85 0.8556624327 0 
0.83333333333 0.8556624327 0 0.84166666667 0.84122867597 0 0.825 0.84122867597 0 
0.83333333333 0.82679491924 0 0.81666666667 0.82679491924 0 0.825 0.81236116251 0 
0.80833333333 0.81236116251 0 0.81666666667 0.79792740578 0 0.8 0.79792740578 0 
0.80833333333 0.78349364905 0 0.79166666667 0.78349364905 0 0.8 0.76905989232 0 
0.78333333333 0.76905989232 0 0.79166666667 0.75462613559 0 0.775 0.75462613559 0 
0.78333333333 0.74019237886 0 0.76666666667 0.74019237886 0 0.775 0.72575862213 0 
0.75833333333 0.72575862213 0 0.76666666667 0.71132486541 0 0.75 0.71132486541 0 
0.75833333333 0.69689110868 0 0.74166666667 0.69689110868 0 0.75 0.68245735195 0 
0.73333333333 0.68245735195 0 0.74166666667 0.66802359522 0 0.725 0.66802359522 0 
0.73333333333 0.65358983849 0 0.71666666667 0.65358983849 0 0.725 0.63915608176 0 
0.70833333333 0.63915608176 0 0.71666666667 0.62472232503 0 0.7 0.62472232503 0 
0.70833333333 0.6102885683 0 0.69166666667 0.6102885683 0 0.7 0.59585481157 0 
0.68333333333 0.59585481157 0 0.69166666667 0.58142105484 0 0.675 0.58142105484 0 
0.68333333333 0.56698729811 0 0.66666666667 0.56698729811 0 0.675 0.55255354138 0 
0.65833333333 0.55255354138 0 0.65 0.56698729811 0 0.64166666667 0.55255354138 0 
0.63333333333 0.56698729811 0 0.625 0.55255354138 0 0.61666666667 0.56698729811 0 
0.60833333333 0.55255354138 0 0.6 0.56698729811 0 0.59166666667 0.55255354138 0 
0.58333333333 0.56698729811 0 0.575 0.55255354138 0 0.56666666667 0.56698729811 0 
0.55833333333 0.55255354138 0 0.55 0.56698729811 0 0.54166666667 0.55255354138 0 
0.53333333333 0.56698729811 0 0.525 0.55255354138 0 0.51666666667 0.56698729811 0 
0.50833333333 0.55255354138 0 0.65 0.53811978465 0 0.53333333333 0.53811978465 0 
0.5 0.56698729811 0 0.49166666667 0.55255354138 0 0.48333333333 0.56698729811 0 
0.475 0.55255354138 0 0.46666666667 0.56698729811 0 0.45833333333 0.55255354138 0 
0.45 0.56698729811 0 0.44166666667 0.55255354138 0 0.45 0.53811978465 0 
0.43333333333 0.56698729811 0 0.43333333333 0.53811978465 0 0.44166666667 0.52368602792 0 
0.425 0.52368602792 0 0.43333333333 0.50925227119 0 0.41666666667 0.50925227119 0 
0.425 0.49481851446 0 0.40833333333 0.49481851446 0 0.41666666667 0.48038475773 0 
0.4 0.48038475773 0 0.40833333333 0.465951001 0 0.525 0.58142105484 0 
0.44166666667 0.58142105484 0 0.425 0.58142105484 0 0.39166666667 0.465951001 0 
0.4 0.45151724427 0 0.38333333333 0.45151724427 0 0.39166666667 0.43708348754 0 
0.38333333333 0.48038475773 0 0.43333333333 0.59585481157 0 0.41666666667 0.59585481157 0 
0.375 0.43708348754 0 0.38333333333 0.42264973081 0 0.4 0.42264973081 0 
0.39166666667 0.40821597408 0 0.40833333333 0.40821597408 0 0.375 0.40821597408 0 
0.725 0.69689110868 0 0.38333333333 0.39378221735 0 0.36666666667 0.39378221735 0 
0.425 0.6102885683 0 0.40833333333 0.6102885683 0 0.375 0.37934846062 0 
0.35833333333 0.37934846062 0 0.41666666667 0.62472232503 0 0.4 0.62472232503 0 
[...]
CELL_DATA 8432
FIELD FieldData 1
dose 1 8432 double
6.8081849616e-22 1.360612294e-21 0.90948079219 5.3256134987e-24 6.9586720113 6.3448581537e-24 2.4652443292e-21 1.0524550623 2.4952621762e-25 
6.7918603202 1.364298088e-21 3.6465175546e-22 2.7052527655e-22 0.00041160526386 0.27854322365 5.5075809161e-25 2.2684322921e-20 3.7047416922e-21 
2.558004407e-24 5.7131065018e-25 3.1907453451 9.7440606959 1.6678711243e-22 0.11201200628 5.9035218382e-21 2.4977884336 1.2663860399e-20 
0.037966555216 0.0063690054025 1.8509575809 0.012017794937 3.4698018633e-22 0.086106912264 4.058543562 1.4172947991e-20 0.35849973063 
8.7386021937 0.0016610000515 9.1436805252e-24 4.788376599e-21 6.2767376054e-22 0.00017730553093 0.9583125086 7.6511497878 2.9317189839e-24 
0.00048707502908 0.45563582085 0.0063273184035 7.176461275 9.2328700736 1.1033659975e-20 9.744550075 3.4377453054 5.0319203929e-21 
2.1836996205 1.2383223402e-24 0.0087042688248 0.00029092498959 0.044254015619 9.6378099935e-22 0.0014251169141 2.0497541106e-22 3.2434099287e-21 
0.2239115275 4.3960420935e-21 1.0040997812e-20 4.4301659399 6.5268748135e-21 1.4174166748e-20 1.866777775e-20 8.3079153952 0.27627700681 
3.0570313428e-21 1.9186822034e-23 0.0045787741872 0.00022356986145 1.5822682727 0.0014986505029 0.0088636237721 1.1676824967e-21 2.4957974588e-21 
7.5717340354e-22 9.5113972066 2.211559195e-20 5.7764749017 1.6572526925e-20 0.83346620103 9.8736469345e-24 10.046102355 0.00045150445221 
8.9959311095 1.132224091e-22 3.5895603101 3.2646227642 9.5031313903 1.740781992e-24 1.4809486982e-22 1.0950688889e-20 0.016043589489 
10.037171909 1.5595797761e-21 0.098331090142 0.61220919567 2.1269142784 0.00097827981585 0.072538075522 1.1569341317e-20 0.00070562285442 
2.8264460682 4.0506010681e-24 9.7035075606e-21 4.199961783 9.4936207811 3.8953682041e-21 1.4196424089 2.2166499708e-20 5.3113849575e-24 
0.0045923460427 0.67102922194 5.0322220968e-22 2.0037272826e-20 7.0637891083 0.14320090818 0.006350814301 0.00010949502648 2.3012408981e-25 
1.2838704583e-24 7.8591471979e-21 1.1099147048e-23 6.1710807148 1.1323635681e-21 0.48531930874 0.88103938576 0.00011246627158 3.1832065919e-22 
2.6050067327e-22 4.8618177668e-23 0.32098826001 5.6742956524e-22 7.0916142166e-21 0.060942345972 1.846784897e-24 3.5446095581e-21 3.2262867786 
9.3837164415 4.2336784412e-24 1.737432256e-21 5.9724352753e-25 3.5993470008e-22 6.2996706661e-21 9.140222258e-22 0.048551623042 4.542923222e-21 
1.65697004 2.8046712264e-24 2.3958289742e-20 2.7831651133e-24 1.0903248909e-20 0.0090034484834 1.2880297974 1.8792970177e-21 1.4961708574e-22 
0.00015792765674 0.00077925794811 1.367035164e-20 5.2667921 7.4874299491 2.7660125197 0.027890918329 1.1571738648 1.6759586942e-21 
0.7459839898 8.9017184806 0.0018937726911 5.2160279427e-20 4.6915359025 0.08171554181 0.0015006315586 0.0022128799559 5.3483179519e-25 
1.9390756968e-22 0.00065782720259 0.001172972866 0.00084686344372 0.00078351930807 1.0783863404e-20 8.121147835 5.2741821388e-20 0.00074822190928 
0.00095207371856 0.00049535270917 0.0037861374464 0.0003609344047 1.6971028603e-22 1.6049013785e-06 1.5900055901e-06 5.5350769683e-06 9.7236184238e-05 
1.303821693e-06 5.2132594939e-05 8.7202247583e-08 5.9869529098e-08 4.3710276728e-08 8.9679879958e-09 9.9005806337e-05 1.0345984326e-09 2.6427202095e-12 
3.2515083495e-14 2.8492242741e-13 1.1142718053e-14 1.0907433755e-15 1.4146873902e-17 7.5217643787e-18 4.5212724145e-23 2.3619882576e-22 2.5663526224e-23 
0.0048123001905 0.0025803129547 4.5441142205e-23 0.0012813205434 0.53252058656 1.1668572557e-19 1.1744316703e-19 8.1106764824e-21 6.7989249474e-20 
4.2993386646e-21 1.2659110775e-19 3.0868075705e-19 6.6691186694e-19 5.1999833345e-19 1.6248625853e-18 2.2722457888e-17 2.6715947551e-18 1.5991228352e-20 
8.3335490324e-20 5.8180140413e-20 3.6821405583e-17 6.5851135204e-20 6.0823849877e-15 8.6135324664e-17 1.4539864514e-16 5.5226830943e-19 9.8638734289e-19 
5.6668309543e-19 3.7596593005e-15 6.6182201635e-14 7.5809389592e-19 1.1388485238e-15 4.326549156e-14 3.03308889e-19 9.5824045167e-18 2.031756841e-20 
1.4267332517e-13 4.3926692343e-13 3.9989847759e-19 6.4213733004e-18 2.0921043708e-13 5.9712377002e-19 2.3235015762e-20 2.8204761928e-20 1.6740691739e-15 
4.4460405402e-14 4.1865470031e-19 1.6270329391e-19 4.6621499497e-20 3.3552694373e-16 1.3761738848e-16 6.5301965387e-14 1.1863747677e-11 5.0025710999e-16 
2.7515098865e-20 6.1719604806e-13 9.2274854814e-17 2.4673142936e-18 1.6660492698e-11 6.3231001973e-13 1.1862551634e-20 3.9721396459e-15 6.4940795275e-21 
1.3474948221e-14 3.3611676153e-11 3.5313728722e-19 7.1113215948e-21 2.533988991e-21 2.6253970273e-10 4.6545408213e-11 2.5037331341e-11 1.0996838998e-20 
3.3425538456e-10 4.3252119297e-13 1.5958495786e-11 1.2989927852e-12 5.7575898681e-05 1.2465083042e-10 7.3251704856e-12 4.969112667e-22 1.2945984327e-21 
6.4704381296e-10 4.0185953822e-06 1.3462698409e-24 8.5919337274e-10 2.308551141e-10 6.0257717626e-14 4.4691556798e-10 2.9786409183e-20 1.4710316161e-21 
1.4898199799e-12 2.5338123335e-19 1.8946917039e-09 1.640442534e-09 6.7239851132e-10 2.0662211661e-13 2.3720079944e-18 6.4088708674e-06 1.8232553892e-18 
1.3377060034e-10 3.0014590869e-18 4.1770810492e-18 0.00015836857839 3.5680588934e-09 1.3630962314e-18 7.6204754069e-13 0.0029033693897 1.9283002152e-10 
1.8940895144e-12 4.9135184257e-20 6.8973253887e-06 5.8001614869e-12 3.9591154479e-12 4.5436287867e-09 0.0002390247249 9.2618606099e-11 1.513123e-10 
0.0023250852535 2.4822532488e-10 2.578136302e-06 0.028923531887 2.8122972141e-22 1.059761665e-08 1.2768560239e-12 5.1341344922e-08 8.439353688e-09 
4.3653163282e-06 5.2483658232e-09 1.7477708125e-12 9.2499045069e-20 0.0017141259522 0.00057503907425 1.467217498e-09 5.8125194328e-05 4.0958915003e-13 
1.228528338e-20 0.0016744425144 3.0807501425e-09 2.278554022e-13 2.2543873497e-21 8.4969950292e-20 0.066686456925 7.9090419978e-12 2.1480507361e-09 
0.18096302876 1.3833381079e-07 4.9826805772e-11 4.4430424365e-19 0.0022398148206 6.5018135576e-19 8.8633139696 0.0030672087643 4.6279349735e-13 
7.2519296296e-19 0.078611838019 1.2838573499e-09 2.3748812596e-22 9.7480861636e-09 1.1525604753e-13 6.3572540526e-08 0.01365621149 0.081598366014 
2.0876150213e-19 1.549229483e-08 3.6027073669e-13 3.2650950672e-05 1.0952259672e-13 1.2749437395e-16 2.735893652e-20 1.9548702427e-05 0.02250333719 
0.1135074047 0.0061788474912 5.8373581859e-15 1.4872259423e-20 3.5847801294e-10 0.010727047925 3.3526995198e-13 0.013667086512 0.23013543024 
0.0076920738754 5.1904591815e-13 0.41705752306 2.6855375903e-16 0.051481282103 0.02150415724 0.0078999137122 2.6940434843e-12 1.7687243683e-15 
1.5664057831e-13 0.00029563222221 8.5690700853e-05 2.0343910281e-14 1.3548447511e-19 7.0858506357e-19 5.1207225041e-17 1.4009687921e-05 3.9912433367 
4.2618227059e-22 4.9329208616e-11 5.063745873e-05 0.028768343406 1.8976317325e-20 0.0004524779754 9.7652100321e-06 6.3503518348e-11 0.00084498454973 
3.5871378966e-09 9.3583432119e-12 0.010404103328 5.3379184381e-11 0.028219084417 3.0737969004e-05 0.00027987747024 0.62523714419 0.005572210571 
6.8664824993e-06 5.4520708996e-18 3.5058454387 0.0088241104805 1.1329035002e-07 3.228178673e-22 4.8824412033e-17 1.6466190663e-18 0.0039201898645 
6.6234123965e-08 5.7558858528e-20 0.00018330900502 0.00068078745546 0.00062205555575 9.1532271632 0.0074220353203 4.6601435849e-12 7.6462510485e-12 
9.2357940755 0.77641087139 0.56728418381 0.34230976057 0.0017660842599 8.1135623524e-05 2.7075646668 3.1281835766 2.6914426501e-20 
1.9414490616e-08 0.026581330487 2.841526925e-08 2.4005906633 8.5453548211e-14 3.5809023815e-12 0.0001098097622 6.1154352917e-16 1.5029286683e-12 
9.1876507497 3.4618432081e-20 1.2202684454e-17 7.8660270908e-05 1.8091006095e-18 9.2934478206e-08 8.1112555345e-12 0.1736038477 0.00031840907445 
8.7486457624 1.2016111714e-15 1.646892514e-19 1.6358794314e-09 0.44070321558 4.0529940736e-18 2.5946212666e-11 0.0011863203749 1.2257518647e-10 
1.1325377177e-11 0.14363536693 0.17770728873 0.00057463493254 9.9653560844e-17 0.00016502889202 8.9699572899e-13 3.5503734842e-22 1.4064819125e-08 
3.7971554237e-12 0.059267207173 1.3448831511e-14 0.00018892707817 0.93402826294 0.024579384475 2.1261205761e-16 4.2795388336e-16 0.0004465983137 
2.23629391e-10 0.000347575965 0.00060049121631 1.6560479216e-07 2.2914451774e-07 0.14499974761 7.1408934415e-13 0.033514081685 0.43874337399 
2.9253271337e-16 1.9755176513e-10 0.27771537907 8.31283945e-15 6.8775546175e-05 8.825623396e-05 5.3041925536e-05 2.0502160659 2.2030356778e-05 
0.0015256096528 6.9321972134e-20 0.52577766 2.8193105176e-19 5.2213256645e-21 3.2132008697e-10 0.0050431859497 4.285413723e-06 3.0045624121e-06 
1.9361383064e-13 4.4882340878e-14 0.088021817697 7.5830446773e-07 0.47995254873 0.056822243828 4.5703663151e-09 0.47810108518 0.015038030611 
1.9314417145e-22 1.3695502699e-13 1.0887368849e-08 5.1057651268e-14 0.35609317187 0.00059189975213 7.5121758682e-21 0.00052014615871 1.1395105338e-12 
0.78718551345 6.9466001217e-06 0.020425112874 4.1175182508e-10 5.8300683092e-18 2.1947397202e-24 0.2859447887 2.6208150614 0.020989014661 
2.8379509872e-08 8.6361485664e-11 2.1760471466e-09 4.1135181378e-10 8.905793238 0.10674430048 7.3236296079e-07 1.0015603068e-18 5.3577714363e-21 
0.0018461125012 0.0068764745292 2.2882025029e-10 0.92116096896 0.42106724045 1.9797294634e-14 0.5342226323 3.0480226778e-12 6.3175666254e-15 
1.4731589478e-08 0.41614848434 1.7931905266 0.53551940826 0.00040513451766 0.0010276209301 6.0824421302e-07 0.35127771765 0.0020053448878 
1.0201317119e-06 9.2525129845e-05 4.130240983 8.3202937476e-18 1.8397620348e-17 0.39614622052 1.0009741566e-10 6.6973000755e-14 7.686144459e-19 
1.0641630476 4.8822411597e-06 0.00033992934049 3.2511910642e-19 0.01613770512 9.9485858746e-14 0.0097741332536 1.5455108495e-14 1.8650364536e-12 
3.8523658747e-09 1.1728129607e-14 5.4571201578e-13 1.5106858098 1.4985019881e-12 0.44911703889 0.37660048735 0.3395585959 4.0272064759e-07 
2.7331447931e-14 7.1587687081e-14 5.2327729165e-08 0.002602969254 2.0663123468e-20 1.9837601782e-12 1.6067310624e-11 0.89539836778 0.42931601059 
3.7514950615e-15 0.97009553186 0.22611561266 0.064032446811 8.303541609e-10 0.087193344286 2.9353610403e-14 0.13456140219 0.037933485055 
0.25990084595 1.7377990196 3.4725017543e-16 0.32518339539 0.00070189653163 0.00019131746979 0.00014621674881 0.015852776449 3.060253311e-08 
8.2106894122e-07 0.0001185782863 1.3591229777e-20 0.27934329098 9.0046731823e-16 0.0020138535524 4.2857203622e-14 2.0385936692e-08 3.1336896992e-15 
0.0064995370338 0.0022711220036 1.1374147846e-08 0.011832793733 0.0028118235406 0.0041282752999 1.260141489e-09 4.5207336178e-07 6.2735974296 
8.5519285277 1.8835480191e-15 1.0678412912e-22 0.0014764813254 1.7325735735e-20 0.2356367675 0.18021179467 7.2596684035e-13 7.98291171e-17 
4.5673717464e-10 5.4544410086e-14 1.264756861e-10 6.5593867812e-09 0.14006035465 1.1721044773e-18 8.8135058832e-14 7.4045254047e-16 2.9355603177e-06 
1.9048244323e-09 2.5592455305e-17 2.6990052327e-15 0.0044760505242 9.9127241939e-05 0.00051408541907 0.86616809455 4.037307492e-14 0.26941281207 
3.1053647157e-10 0.49373133641 0.15031007901 1.2521378663e-06 3.6659377214e-08 2.32048897e-08 0.051778158293 0.076414465331 7.6719387661e-08 
0.41562774091 0.43353674031 2.3347858538 1.7712418854e-20 3.8615743982e-07 0.024909753871 0.35274467939 0.12428584391 8.5471067483e-08 
1.8840904719e-20 8.7191042934e-15 4.8106125852e-14 1.7374390403e-10 2.8485178663e-22 1.0257426355e-19 3.0038801789e-15 2.4320806515e-13 9.3221476275e-06 
0.00041566032053 1.31365285e-07 5.7516948764e-13 0.10969064614 1.2230480854e-22 0.00088212186322 6.4149602486e-13 5.9328625612e-06 1.0207279293e-09 
9.4531916315e-08 9.9290498678e-12 4.1219177733e-07 5.2813294608e-08 0.31025829346 5.5637957202e-05 4.4436924402e-14 6.1344745708e-07 5.4700032136e-15 
0.49846837584 0.00011502204214 8.8911725383e-07 1.3188521149e-05 6.5235279753e-14 1.7970334772e-16 2.9223376906e-07 2.3669786557e-06 0.093697840041 
0.50068683316 1.7463065469e-06 3.4906212021e-08 2.1503301521 7.5671957924e-21 4.3400294692e-11 2.6090265981e-19 1.4175778097e-06 5.6143768898e-05 
0.0069996363691 1.4774334752e-20 1.2131292479e-06 1.6575151863e-19 0.0032668345869 0.038010345684 0.0025379456866 6.7966161595e-12 3.4286365976e-10 
3.5673721125e-06 2.3174877504e-10 3.3406581958e-13 1.7858263842e-13 8.0546865407e-05 1.2983184876 5.2234786339e-13 1.0101054609 0.78430903065 
1.5378031067e-16 1.7854716459e-15 1.5740715412 6.0545146084e-17 2.4749861453e-17 9.3857213472e-21 6.0509544866 1.1483171152 8.7978333089e-10 
2.5288286871e-05 4.4396578857e-20 0.59577021076 5.6409357198e-22 3.1204650971e-19 8.0656283124e-06 3.3316659174e-06 1.82445289e-21 2.1812471668e-05 
0.045698913961 0.32760512839 9.9959904684e-17 4.1508822513 0.00063628205164 0.063837233504 0.055475641241 0.003127117571 0.82438583075 
6.1056923012e-15 7.6844955804e-10 6.5749099728e-16 2.1471979473e-13 1.0268472143e-20 1.7482706021e-16 0.39194548836 0.0026002681071 8.8034091207e-06 
6.8488022081 1.4491072684e-15 0.73689331074 2.1867922365e-20 2.0346586999e-06 2.0739543146e-06 1.0135363337e-16 7.3204957829e-16 7.1079551181e-14 
0.63221841859 0.38748029678 0.22826256643 1.8147711767e-05 3.8010350507e-15 1.7119742725e-07 4.0794557256e-13 2.9077159711e-06 1.5040117424e-06 
1.909893519e-08 2.1818466376e-16 0.022262516469 5.1505802039e-20 0.3084308579 2.7905670473e-06 0.00016317919723 0.62269093853 0.0010581788358 
0.89192692381 0.00014904118135 0.05392759038 0.061387144501 1.4484746595e-11 1.1789400787e-16 0.0095747625462 1.2843821356e-09 0.00011110188522 
0.433999952 7.1198900074e-11 1.2370651517 0.0018778496255 3.0402181224 0.00015369275346 2.676869802e-14 1.0062305656e-06 1.8275741955e-19 
0.3474196459 0.040496229927 0.11252003242 4.1639871694e-21 7.7435759052 0.18402593959 0.057982129474 1.4436830857 4.0361003415e-10 
2.6737894331e-10 5.9103492674e-21 1.3025238541 1.0846780209e-06 2.2347907731e-05 0.0023460193337 5.17607948e-10 0.012057675415 0.51883241881 
0.14918130008 0.00057538326344 1.4760940933e-16 0.00060015192688 1.0047540071e-10 0.27077722198 0.065346967588 8.1539091117e-08 5.294191322e-05 
8.3380582982e-14 3.352349443e-16 3.3017734594e-07 4.0672770085e-07 4.8877716588e-05 8.1985988485e-09 1.1382639333e-05 6.2516700652e-07 6.949336588e-10 
7.7891543134e-05 2.816697868 0.0008993228142 0.0017743768693 2.9655610476e-21 2.5494195401e-12 3.2950111784e-14 0.0043681383177 7.3367308206e-10 
1.5065523882e-05 9.3288441375e-19 0.0089946231754 0.3734939778 1.9272377815e-13 2.2581695594e-05 5.2284718262e-18 1.1230187669e-20 2.191217481e-06 
0.00078766342532 3.3531522975e-16 2.5036767627e-21 9.4947566501e-08 0.28644746269 2.0787004528e-10 0.11881917672 3.5045098703e-05 5.4489450989e-14 
1.5664637677e-13 2.5615882492e-12 2.9116529731e-07 4.7769682176e-14 1.1253588812e-19 2.4852382704e-19 6.4471805035e-14 2.2116633842e-14 1.0095032816e-13 
1.4508049943e-20 1.1754454996e-13 0.15279765876 1.0913470948e-12 3.502359322e-17 5.8665198879 1.3768416405e-05 1.0847602875e-09 2.2080036501e-09 
9.6195795216e-16 2.4856077456e-18 1.9650135962e-10 3.5819625561e-15 2.15010021e-05 0.69559770096 1.1383360569e-07 1.5334296325e-16 2.4299860797 
0.085923208267 0.037973207322 0.0028506745081 3.5760859658e-05 6.0708430005e-17 3.1614993156 4.2964581021e-10 0.94902242776 0.0082746356623 
7.8321922547e-11 5.2071351693e-16 4.0749751926e-12 0.016291149064 4.5189301327e-05 5.3669759856e-06 0.11624525736 0.0012175105334 5.4951920639e-07 
7.065917503e-10 0.63291800328 3.0525379144e-06 0.24226847222 1.1599128221e-13 4.1060300249e-08 0.0008610343809 0.0010062418756 4.6442336858e-17 
8.2713787638e-06 5.8341653025e-05 1.1683553246e-18 0.0010914360779 8.757132617e-22 3.8355465598e-15 4.8541984541e-18 1.8477049752e-08 0.0033741574244 
4.3048067168e-08 5.1236948296e-06 6.7538748478e-05 1.2185202496e-17 3.4286998937e-05 5.989925124e-15 1.3339021844e-21 1.5545523169e-09 0.0071327667189 
0.68971928359 3.9658985439e-15 1.2123264142e-13 0.77592634127 5.637474869e-06 6.3495178287e-13 1.0373601467e-17 0.49522565002 0.00012660582934 
1.0868619182 4.7011688243e-16 7.5348658448e-22 0.00039361963139 3.4525781055e-18 2.798278126 1.288994747 6.5509302291e-11 6.4907529891e-07 
5.7339150846e-19 1.7808705337e-16 1.860674382e-07 4.7060475597e-21 0.057239289746 2.9318178828 2.3236928879e-06 3.1864485893e-05 2.9668292618e-10 
0.012383590561 2.2254090605e-08 0.00080080852397 0.6211459092 7.1557323556e-11 2.3278060434e-16 1.2098323654e-06 4.1545852583e-10 1.467562606 
1.5910456866e-16 1.0565835854 0.021508500271 4.7181350134e-09 0.00038157653675 3.3429191575e-17 0.49399504924 5.4989641499e-21 0.70472014822 
2.2609320052 6.5456427344e-17 1.0827911859e-15 9.4963451004e-09 4.986905521 1.5818832896e-15 3.6653731389 1.691064469 5.2611407448e-19 
1.4204617799e-13 1.3319506031e-12 4.1791253587e-17 2.9223625628e-11 0.0022794902538 9.8080893178e-18 4.9468479428e-05 2.1020914508e-18 3.4759664243e-20 
4.6357372278e-12 1.9930918025e-17 1.570641129e-15 0.29138472501 0.33985298485 2.1865060346e-06 7.394753553 0.00011320526698 3.9448333859e-14 
2.9071327344e-19 1.0382430894e-05 3.2795148406e-13 2.0310420309e-19 0.094395873689 9.7008967694e-09 2.1728973134e-07 1.9078193261e-18 0.0033816014679 
0.0043815280975 5.3257225599e-05 0.56204541389 1.3586639349 1.357449907e-19 8.0861805445e-17 4.4774988777e-13 0.19670717731 0.15753214616 
1.6060469584e-06 9.6836103088e-05 2.8738297126e-05 6.1844632968e-06 3.5815478015 4.3872218861e-13 8.9924566914e-05 0.068989837138 0.050987090497 
1.3986561426e-07 1.4578945253 2.0803938739e-05 0.00090643039894 1.4065672978e-13 2.4314100496e-07 3.4316583963e-22 1.9056586665 0.0082633507954 
0.034600096001 2.4107541848e-14 1.2777580788e-10 0.082698197882 3.4611441293e-15 2.5049197595e-05 0.077333100447 1.6027694809e-08 2.916837308e-17 
0.0026747851805 4.9030870137e-25 5.1931991323e-10 0.0011331102238 1.8615338993e-06 7.6539532951e-19 0.02730293235 2.6007215418e-05 0.00022488901518 
1.1337394134 1.3332738878 3.6459295766 1.6412818484e-14 0.45135283583 4.6445315407e-08 2.4209220606e-07 1.5703995061e-10 3.6455310416e-21 
0.29309878001 1.3789157407e-14 4.6819642042e-13 2.3616216747e-16 1.7175796211e-21 0.0038727145653 0.024553154587 1.2562178476e-20 0.066512773054 
0.28110033749 0.00024615330915 7.2637197977e-05 5.4305885241e-18 3.6370559809e-22 0.0045777694958 2.4820304493e-07 2.8446728545e-22 0.0127774528 
1.2708676033e-10 2.1177921543e-06 0.00045818952689 0.0003490589665 6.0252280213 2.7695816518 2.9277101168e-07 6.6199358927e-14 0.00094285914776 
7.7285356226e-05 0.018993744681 3.5466197867e-17 2.3529201641 8.2632484093 0.046795158507 0.027185573688 4.8868940666e-12 2.5018522761e-15 
4.7912551007e-17 0.39227234264 0.27717936788 0.0013847823946 0.00021968499028 1.6787310457e-15 0.0065000762935 0.015889998876 4.4843120947e-16 
0.00012871587528 1.2860938315e-05 0.00011116140166 0.0049520685813 3.7677003813e-05 5.9006769884e-05 1.071047139e-05 9.7121125987e-18 0.70495001864 
0.037512754425 0.14211304469 1.5614479939e-06 0.034104818764 1.0680983638e-10 4.0776891196 3.6558355089e-14 1.1182538592e-08 0.011463211469 
0.0037475626248 2.3218053691e-07 0.30232519499 8.5936241531e-16 5.9767713021e-14 1.6219198156e-13 0.72046339877 1.9139267764e-11 2.6155154347e-10 
3.7470966201e-08 9.9350642864e-08 7.7493611098e-09 1.373822318e-08 1.2814473276e-10 5.5461849701e-12 2.7706301645e-13 9.8748851312e-06 2.2165472965e-11 
1.3656012497e-14 3.8907680561e-08 1.6783892227e-07 4.4341544631e-15 1.3943191454e-07 1.0104776453e-14 0.00010502395137 7.5456616437e-05 1.8775987404 
9.2225415082e-14 1.8616805556e-20 0.003369061479 0.00025943245936 5.8270901423e-15 1.5055051781e-16 8.4206060711 0.24276302751 2.1569957365e-05 
2.5352961697e-07 1.6766549115e-14 1.8623226409 1.4721772029e-16 3.8519669275e-05 6.546195406e-11 1.8320770802e-15 2.0020056053 6.8900645635e-22 
0.55459157501 1.5900511453e-10 3.5307741579e-13 6.4422073805e-05 4.3861679712e-13 8.7567352083e-10 2.6178326182e-16 1.1342913642e-16 1.8247792738e-20 