# vtk DataFile Version 4.2
vtk output
ASCII
DATASET UNSTRUCTURED_GRID
POINTS 4337 double
0 0 0 1 0 0 1 1 0 
0 1 0 0.016666666667 0 0 0.033333333333 0 0 
0.05 0 0 0.066666666667 0 0 0.083333333333 0 0 
0.1 0 0 0.11666666667 0 0 0.13333333333 0 0 
0.15 0 0 0.16666666667 0 0 0.18333333333 0 0 
0.2 0 0 0.21666666667 0 0 0.23333333333 0 0 
0.25 0 0 0.26666666667 0 0 0.28333333333 0 0 
0.3 0 0 0.31666666667 0 0 0.33333333333 0 0 
0.35 0 0 0.36666666667 0 0 0.38333333333 0 0 
0.4 0 0 0.41666666667 0 0 0.43333333333 0 0 
0.45 0 0 0.46666666667 0 0 0.48333333333 0 0 
0.5 0 0 0.51666666667 0 0 0.53333333333 0 0 
0.55 0 0 0.56666666667 0 0 0.58333333333 0 0 
0.6 0 0 0.61666666667 0 0 0.63333333333 0 0 
0.65 0 0 0.66666666667 0 0 0.68333333333 0 0 
0.7 0 0 0.71666666667 0 0 0.73333333333 0 0 
0.75 0 0 0.76666666667 0 0 0.78333333333 0 0 
0.8 0 0 0.81666666667 0 0 0.83333333333 0 0 
0.85 0 0 0.86666666667 0 0 0.88333333333 0 0 
0.9 0 0 0.91666666667 0 0 0.93333333333 0 0 
0.95 0 0 0.96666666667 0 0 0.98333333333 0 0 
1 0.016666666667 0 1 0.033333333333 0 1 0.05 0 
1 0.066666666667 0 1 0.083333333333 0 1 0.1 0 
1 0.11666666667 0 1 0.13333333333 0 1 0.15 0 
1 0.16666666667 0 1 0.18333333333 0 1 0.2 0 
1 0.21666666667 0 1 0.23333333333 0 1 0.25 0 
1 0.26666666667 0 1 0.28333333333 0 1 0.3 0 
1 0.31666666667 0 1 0.33333333333 0 1 0.35 0 
1 0.36666666667 0 1 0.38333333333 0 1 0.4 0 
1 0.41666666667 0 1 0.43333333333 0 1 0.45 0 
1 0.46666666667 0 1 0.48333333333 0 1 0.5 0 
1 0.51666666667 0 1 0.53333333333 0 1 0.55 0 
1 0.56666666667 0 1 0.58333333333 0 1 0.6 0 
1 0.61666666667 0 1 0.63333333333 0 1 0.65 0 
1 0.66666666667 0 1 0.68333333333 0 1 0.7 0 
1 0.71666666667 0 1 0.73333333333 0 1 0.75 0 
1 0.76666666667 0 1 0.78333333333 0 1 0.8 0 
1 0.81666666667 0 1 0.83333333333 0 1 0.85 0 
1 0.86666666667 0 1 0.88333333333 0 1 0.9 0 
1 0.91666666667 0 1 0.93333333333 0 1 0.95 0 
1 0.96666666667 0 1 0.98333333333 0 0.98333333333 1 0 
0.96666666667 1 0 0.95 1 0 0.93333333333 1 0 
0.91666666667 1 0 0.9 1 0 0.88333333333 1 0 
0.86666666667 1 0 0.85 1 0 0.83333333333 1 0 
0.81666666667 1 0 0.8 1 0 0.78333333333 1 0 
0.76666666667 1 0 0.75 1 0 0.73333333333 1 0 
0.71666666667 1 0 0.7 1 0 0.68333333333 1 0 
0.66666666667 1 0 0.65 1 0 0.63333333333 1 0 
0.61666666667 1 0 0.6 1 0 0.58333333333 1 0 
0.56666666667 1 0 0.55 1 0 0.53333333333 1 0 
0.51666666667 1 0 0.5 1 0 0.48333333333 1 0 
0.46666666667 1 0 0.45 1 0 0.43333333333 1 0 
0.41666666667 1 0 0.4 1 0 0.38333333333 1 0 
0.36666666667 1 0 0.35 1 0 0.33333333333 1 0 
0.31666666667 1 0 0.3 1 0 0.28333333333 1 0 
0.26666666667 1 0 0.25 1 0 0.23333333333 1 0 
0.21666666667 1 0 0.2 1 0 0.18333333333 1 0 
0.16666666667 1 0 0.15 1 0 0.13333333333 1 0 
0.11666666667 1 0 0.1 1 0 0.083333333333 1 0 
0.066666666667 1 0 0.05 1 0 0.033333333333 1 0 
0.016666666667 1 0 0 0.98333333333 0 0 0.96666666667 0 
0 0.95 0 0 0.93333333333 0 0 0.91666666667 0 
0 0.9 0 0 0.88333333333 0 0 0.86666666667 0 
0 0.85 0 0 0.83333333333 0 0 0.81666666667 0 
0 0.8 0 0 0.78333333333 0 0 0.76666666667 0 
0 0.75 0 0 0.73333333333 0 0 0.71666666667 0 
0 0.7 0 0 0.68333333333 0 0 0.66666666667 0 
0 0.65 0 0 0.63333333333 0 0 0.61666666667 0 
0 0.6 0 0 0.58333333333 0 0 0.56666666667 0 
0 0.55 0 0 0.53333333333 0 0 0.51666666667 0 
0 0.5 0 0 0.48333333333 0 0 0.46666666667 0 
0 0.45 0 0 0.43333333333 0 0 0.41666666667 0 
0 0.4 0 0 0.38333333333 0 0 0.36666666667 0 
0 0.35 0 0 0.33333333333 0 0 0.31666666667 0 
0 0.3 0 0 0.28333333333 0 0 0.26666666667 0 
0 0.25 0 0 0.23333333333 0 0 0.21666666667 0 
0 0.2 0 0 0.18333333333 0 0 0.16666666667 0 
0 0.15 0 0 0.13333333333 0 0 0.11666666667 0 
0 0.1 0 0 0.083333333333 0 0 0.066666666667 0 
0 0.05 0 0 0.033333333333 0 0 0.016666666667 0 
0.49166666667 0.98556624327 0 0.015226257951 0.49094414802 0 0.50833333333 0.01443375673 0 
0.98498566592 0.50869210525 0 0.39166666667 0.013182344919 0 0.014092194546 0.60771341243 0 
0.9840923776 0.39277745592 0 0.60833333333 0.98556624327 0 0.62525551531 0.014403078076 0 
0.014524354383 0.37488711367 0 0.98506695639 0.62483997793 0 0.375 0.98556624327 0 
0.29266828667 0.015774730045 0 0.98497301309 0.28990572128 0 0.70833333333 0.98556624327 0 
0.015390011072 0.70991624931 0 0.98676082106 0.72412772914 0 0.275 0.98556624327 0 
0.72541734167 0.012972421589 0 0.014904175112 0.2739124525 0 0.20833333333 0.01443375673 0 
0.79166666667 0.98556624327 0 0.98509148771 0.20956900989 0 0.01443375673 0.79166666667 0 
0.80833333333 0.01443375673 0 0.015124185708 0.19161866647 0 0.9850438905 0.80751432539 0 
0.19166666667 0.98556624327 0 0.85833333333 0.98556624327 0 0.014121029014 0.85833333333 0 
0.14166666667 0.01443375673 0 0.98759019215 0.14143693021 0 0.98556624327 0.875 0 
0.125 0.98556624327 0 0.87458265833 0.012972421589 0 0.01443375673 0.125 0 
0.98622299433 0.55822453833 0 0.54166666667 0.98556624327 0 0.425 0.98556624327 0 
0.325 0.98556624327 0 0.01443375673 0.44166666667 0 0.98640722406 0.67473971232 0 
0.575 0.01443375673 0 0.015869085572 0.53996752425 0 0.014840310146 0.32578846252 0 
0.675 0.01443375673 0 0.98536405319 0.34189743683 0 0.65833333333 0.98556624327 0 
0.98556624327 0.44166666667 0 0.015840429884 0.65614545051 0 0.341249325 0.012959117371 0 
0.44208400834 0.012972421589 0 0.015591057985 0.9104940068 0 0.90833333333 0.98556624327 0 
0.091666666667 0.01443375673 0 0.98502898658 0.093356035331 0 0.075 0.98556624327 0 
0.98512737035 0.92400478862 0 0.92486963505 0.014422260192 0 0.015067916236 0.075447124014 0 
0.94166666667 0.98556624327 0 0.014809050345 0.94182003332 0 0.98415303694 0.77243133732 0 
0.98670026381 0.84271289566 0 0.74166666667 0.98556624327 0 0.225 0.98556624327 0 
0.15833333333 0.98556624327 0 0.98502738383 0.057338738873 0 0.575 0.98556624327 0 
0.75833333333 0.01443375673 0 0.014488033782 0.24102048943 0 0.84166666667 0.01443375673 0 
0.015845777768 0.16042556336 0 0.01138198052 0.40795855664 0 0.825 0.98556624327 0 
0.54166666667 0.01443375673 0 0.45833333333 0.98556624327 0 0.98440739531 0.59321126922 0 
0.98426199828 0.47737493267 0 0.057749054996 0.014096423475 0 0.98589314221 0.17443379443 0 
0.01443375673 0.825 0 0.014673219727 0.74089537493 0 0.175 0.013551549901 0 
0.01443375673 0.575 0 0.98529504721 0.25833515233 0 0.475 0.01443375673 0 
0.24179703162 0.014422260192 0 0.98506173125 0.95977876091 0 0.041802883627 0.98564488817 0 
0.95829189206 0.013946587987 0 0.015287717588 0.043965525831 0 0.97492937718 0.98588713258 0 
0.015094954124 0.97346957302 0 0.9838998273 0.024922079696 0 0.025070622821 0.014112867418 0 
0.925 0.98556624327 0 0.91666666667 0.97113248654 0 0.9 0.97113248654 0 
0.90833333333 0.95669872981 0 0.89166666667 0.95669872981 0 0.9 0.94226497308 0 
0.88333333333 0.94226497308 0 0.89166666667 0.92783121635 0 0.875 0.92783121635 0 
0.88333333333 0.91339745962 0 0.86666666667 0.91339745962 0 0.875 0.89896370289 0 
0.85833333333 0.89896370289 0 0.86666666667 0.88452994616 0 0.85 0.88452994616 0 
0.85833333333 0.87009618943 0 0.84166666667 0.87009618943 0 0.85 0.8556624327 0 
0.83333333333 0.8556624327 0 0.84166666667 0.84122867597 0 0.825 0.84122867597 0 
0.83333333333 0.82679491924 0 0.81666666667 0.82679491924 0 0.825 0.81236116251 0 
0.80833333333 0.81236116251 0 0.81666666667 0.79792740578 0 0.8 0.79792740578 0 
0.80833333333 0.78349364905 0 0.79166666667 0.78349364905 0 0.8 0.76905989232 0 
0.78333333333 0.76905989232 0 0.79166666667 0.75462613559 0 0.775 0.75462613559 0 
0.78333333333 0.74019237886 0 0.76666666667 0.74019237886 0 0.775 0.72575862213 0 
0.75833333333 0.72575862213 0 0.76666666667 0.71132486541 0 0.75 0.71132486541 0 
0.75833333333 0.69689110868 0 0.74166666667 0.69689110868 0 0.75 0.68245735195 0 
0.73333333333 0.68245735195 0 0.74166666667 0.66802359522 0 0.725 0.66802359522 0 
0.73333333333 0.65358983849 0 0.71666666667 0.65358983849 0 0.725 0.63915608176 0 
0.70833333333 0.63915608176 0 0.71666666667 0.62472232503 0 0.7 0.62472232503 0 
0.70833333333 0.6102885683 0 0.69166666667 0.6102885683 0 0.7 0.59585481157 0 
0.68333333333 0.59585481157 0 0.69166666667 0.58142105484 0 0.675 0.58142105484 0 
0.68333333333 0.56698729811 0 0.66666666667 0.56698729811 0 0.675 0.55255354138 0 
0.65833333333 0.55255354138 0 0.65 0.56698729811 0 0.64166666667 0.55255354138 0 
0.63333333333 0.56698729811 0 0.625 0.55255354138 0 0.61666666667 0.56698729811 0 
0.60833333333 0.55255354138 0 0.6 0.56698729811 0 0.59166666667 0.55255354138 0 
0.58333333333 0.56698729811 0 0.575 0.55255354138 0 0.56666666667 0.56698729811 0 
0.55833333333 0.55255354138 0 0.55 0.56698729811 0 0.54166666667 0.55255354138 0 
0.53333333333 0.56698729811 0 0.525 0.55255354138 0 0.51666666667 0.56698729811 0 
0.50833333333 0.55255354138 0 0.65 0.53811978465 0 0.53333333333 0.53811978465 0 
0.5 0.56698729811 0 0.49166666667 0.55255354138 0 0.48333333333 0.56698729811 0 
0.475 0.55255354138 0 0.46666666667 0.56698729811 0 0.45833333333 0.55255354138 0 
0.45 0.56698729811 0 0.44166666667 0.55255354138 0 0.45 0.53811978465 0 
0.43333333333 0.56698729811 0 0.43333333333 0.53811978465 0 0.44166666667 0.52368602792 0 
0.425 0.52368602792 0 0.43333333333 0.50925227119 0 0.41666666667 0.50925227119 0 
0.425 0.49481851446 0 0.40833333333 0.49481851446 0 0.41666666667 0.48038475773 0 
0.4 0.48038475773 0 0.40833333333 0.465951001 0 0.525 0.58142105484 0 
0.44166666667 0.58142105484 0 0.425 0.58142105484 0 0.39166666667 0.465951001 0 
0.4 0.45151724427 0 0.38333333333 0.45151724427 0 0.39166666667 0.43708348754 0 
0.38333333333 0.48038475773 0 0.43333333333 0.59585481157 0 0.41666666667 0.59585481157 0 
0.375 0.43708348754 0 0.38333333333 0.42264973081 0 0.4 0.42264973081 0 
0.39166666667 0.40821597408 0 0.40833333333 0.40821597408 0 0.375 0.40821597408 0 
0.725 0.69689110868 0 0.38333333333 0.39378221735 0 0.36666666667 0.39378221735 0 
0.425 0.6102885683 0 0.40833333333 0.6102885683 0 0.375 0.37934846062 0 
0.35833333333 0.37934846062 0 0.41666666667 0.62472232503 0 0.4 0.62472232503 0 
[...]
CELL_DATA 8432
FIELD FieldData 3
radiation%20flux%20density 1 8432 double
7.8079803814e-21 1.5479180558e-20 10.211431539 6.0790664248e-23 78.036650914 7.2377087491e-23 2.8183282068e-20 11.81322295 2.8504171636e-24 
76.157157076 1.557716764e-20 4.1819412237e-21 3.0814575854e-21 0.0046330513503 3.1272339941 6.3242328609e-24 2.5922478573e-19 4.2095140963e-20 
2.9196358009e-23 6.5298364733e-24 35.798902712 109.27562337 1.9003216237e-21 1.2577460894 6.7075771301e-20 28.025612363 1.4388404672e-19 
0.42670685495 0.071658854168 20.76965073 0.1350826521 3.9579860345e-21 0.96744464065 45.524097362 1.6187590618e-19 4.025743692 
98.0064074 0.018675895613 1.0434951717e-22 5.4653508586e-20 7.1404091757e-21 0.001996704856 10.751947702 85.795301344 3.3479049632e-23 
0.0054953067817 5.1131441417 0.071133000356 80.485210378 103.54229414 1.2638653119e-19 109.28196162 38.577475836 5.7392777162e-20 
24.491877271 1.4220290162e-23 0.097893732592 0.0032796863393 0.49772748989 1.0811694931e-20 0.016009595098 2.336585351e-21 3.6891397263e-20 
2.5118394412 5.0160884264e-20 1.1469169721e-19 49.707861348 7.473343255e-20 1.622076942e-19 2.1301360506e-19 93.165160086 3.1050106694 
3.4293776588e-20 2.2019995832e-22 0.051364687311 0.0025197992024 17.751120449 0.016860475484 0.09959493678 1.3351988787e-20 2.7997855064e-20 
8.633339891e-21 106.66832919 2.5281540966e-19 64.806545313 1.8958987612e-19 9.3559646458 1.1254255861e-22 112.69717288 0.0050842924164 
100.89766621 1.2895985055e-21 40.25632462 36.62577915 106.57236954 1.9924512432e-23 1.693242405e-21 1.2538385073e-19 0.18056421015 
112.56345356 1.7817078259e-20 1.1044373744 6.8719882392 23.87745064 0.011009614227 0.8149947773 1.3155313938e-19 0.0079423061231 
31.729273494 4.652290795e-23 1.1094609658e-19 47.097763513 106.45705388 4.4427361121e-20 15.920157453 2.5373212199e-19 6.1056298679e-23 
0.051610036907 7.5316847136 5.7681429522e-21 2.2887150489e-19 79.225771362 1.6070061615 0.071490052052 0.0012321331033 2.6291037776e-24 
1.4663119593e-23 8.9638165234e-20 1.2752391777e-22 69.258550205 1.2982743033e-20 5.4505693696 9.8820311737 0.0012685889959 3.6511389527e-21 
2.9863902782e-21 5.5622642246e-22 3.6015880647 6.4933574796e-21 8.0993204274e-20 0.68502498016 2.1245962509e-23 4.0491619594e-20 36.193510801 
105.22447054 4.8696920418e-23 1.9795987078e-20 6.794482817e-24 4.1302052655e-21 7.205787206e-20 1.0417455635e-20 0.54494299546 5.1976677278e-20 
18.6039776 3.2076414782e-23 2.740030426e-19 3.1966101775e-23 1.2482544301e-19 0.10112802209 14.446909166 2.1491585492e-20 1.7157966242e-21 
0.0017776559217 0.0087715371117 1.5598213518e-19 59.06929438 83.957860762 31.026913375 0.31342403233 12.989731648 1.9067352276e-20 
8.3705054454 99.817255234 0.021319056042 5.9527646307e-19 52.641231572 0.91709212614 0.01689228284 0.024874393071 6.1314924756e-24 
2.2129170843e-21 0.0074027325329 0.013192520899 0.0095281585995 0.0088231686981 1.2323413024e-19 91.090403774 6.0234877049e-19 0.008418914691 
0.010714901364 0.0055804951813 0.042595381759 0.0040590332565 1.9447855068e-21 1.8043925038e-05 1.7868744102e-05 6.2302109061e-05 0.0010957646936 
1.4663017989e-05 0.00058622030779 9.8558930223e-07 6.7684812665e-07 4.9244675542e-07 1.008880264e-07 0.0011139278339 1.3353884166e-08 2.9837368568e-11 
3.6750107632e-13 3.2245236557e-12 1.2600858205e-13 1.2331727193e-14 1.6153504355e-16 8.5345455162e-17 5.1894354455e-22 2.7088382633e-21 2.9325262754e-22 
0.054138251772 0.029035101244 5.2041361556e-22 0.014422572224 5.9838340765 1.3324448414e-18 1.3406403239e-18 9.2856920466e-20 7.7505110879e-19 
4.9039073225e-20 1.4474498487e-18 3.5168906e-18 7.622196902e-18 5.9434748114e-18 1.8496673961e-17 2.5842877352e-16 3.0514505026e-17 1.8234034921e-19 
9.532287783e-19 6.6311870128e-19 4.2005768328e-16 7.5328140676e-19 6.9227531033e-14 9.7918855937e-16 1.6576930515e-15 6.2902447937e-18 1.1269241414e-17 
6.4751807744e-18 4.2684579829e-14 7.5245148172e-13 8.6616514235e-18 1.2934930179e-14 4.9078019764e-13 3.4548940616e-18 1.0938272037e-16 2.3170242141e-19 
1.6176838429e-12 2.3660984807e-11 4.5544750272e-18 7.3063108455e-17 2.3754608875e-12 6.8247659592e-18 2.6593743889e-19 3.2280281831e-19 1.9064514662e-14 
5.0434245226e-13 4.7690963471e-18 1.8538995606e-18 5.3143847519e-19 3.8124638331e-15 1.5689971556e-15 7.424097546e-13 2.7260209555e-10 5.7001762523e-15 
3.1482134877e-19 7.0038753092e-12 1.0489488245e-15 2.8174316551e-17 3.8319607428e-10 6.9936634821e-11 1.3604747708e-19 4.5095808543e-14 7.4066781639e-20 
1.5291741079e-13 7.7218995175e-10 4.0221606732e-18 8.1115689809e-20 2.903838609e-20 6.0295152888e-09 1.070312612e-09 5.7577935715e-10 1.2594748729e-19 
7.6828430373e-09 4.8985059785e-12 3.6669424878e-10 2.9893014195e-11 0.00064859822279 2.8632542065e-09 1.6833543041e-10 5.6982740122e-21 1.4772555934e-20 
1.4858001069e-08 4.5310633245e-05 1.5398094372e-23 1.9744384439e-08 5.3064346477e-09 1.386570317e-12 1.0263350392e-08 3.3959806098e-19 1.6784770688e-20 
3.4259687892e-11 2.8864517093e-18 4.3532244919e-08 3.7663684298e-08 1.5452253952e-08 4.7546180744e-12 2.7002650843e-17 7.2254357036e-05 2.0758545922e-17 
3.0753481966e-09 3.4164096803e-17 4.7691448024e-17 0.0017835208092 8.1911407795e-08 1.552178093e-17 1.7531063633e-11 0.1921794282 4.4324976845e-09 
2.1477080294e-10 5.6306658246e-19 7.7764595766e-05 1.3343678808e-10 9.0985079829e-11 1.0437367923e-07 0.0026910067419 2.1274581324e-09 3.475509361e-09 
0.02615683613 5.7008521863e-09 2.892153218e-05 0.32505724574 3.2109345598e-21 2.43396764e-07 1.4466829544e-10 1.178121027e-06 1.9371450099e-07 
4.922740171e-05 1.2055936274e-07 4.0194600059e-11 1.0569808442e-18 0.019285607747 0.013176689052 3.3687465986e-08 0.00065480575103 9.4211529164e-12 
1.4033870884e-19 0.018838188452 7.0726393759e-08 5.2428843586e-12 2.5834941842e-20 9.6835465851e-19 0.74923588173 1.8192755155e-10 4.9352501031e-08 
2.0323817559 3.1753717312e-06 1.1446958172e-09 5.0713726716e-18 0.025195590824 7.4120943463e-18 99.405444259 0.034499389668 1.0646884295e-11 
8.2775348893e-18 0.88313040061 2.9478279657e-08 2.712074776e-21 2.2374574606e-07 2.652391019e-12 1.4595196336e-06 0.15343560416 0.91671435764 
2.3818887915e-18 3.5579255542e-07 8.2896185996e-12 0.00036794379276 2.5198106669e-12 1.4493667563e-15 3.1197680968e-19 0.00022034453893 0.25291703855 
1.2750053575 0.069475567829 6.6439279454e-14 1.6995505441e-19 8.2395140117e-09 0.12061293297 7.7082701615e-12 1.5335051865 2.5843507659 
0.086510526673 1.1947197287e-11 46.789864009 3.0605213847e-15 0.57844559255 0.24170868676 0.088837146854 6.1919986725e-11 2.0142214373e-14 
5.7624209206e-12 0.0067753413455 0.00096522017656 2.3142115724e-13 1.5456279407e-18 8.0696219356e-18 5.8326816623e-16 0.0001579278529 44.757193872 
4.8873996589e-21 1.1335573566e-09 0.00057043112407 0.32333734475 2.163781433e-19 0.010367104236 0.00011009348767 1.4600690823e-09 0.0095094993834 
8.2348815761e-08 2.1507093809e-10 1.160776396 1.2270032409e-09 0.3171547719 0.00034632068328 0.0031509434272 7.0188789945 0.59481791407 
7.7415664612e-05 6.2128357619e-17 39.331831633 0.09921901742 2.5993268213e-06 3.6854878073e-21 5.5584678301e-16 1.8766019016e-17 0.43988336942 
1.5197638534e-06 6.5785346927e-19 0.0042006509414 0.015599892941 0.0070020149662 102.64287009 0.83280361938 1.0719891671e-10 1.7583394677e-10 
103.56667914 8.7144027432 6.3684677893 3.8435428902 0.040454581205 0.00091385014282 30.378501937 35.100317392 3.0800653129e-19 
4.4557574187e-07 0.29872886361 6.5248277063e-07 26.934570657 8.7994604497e-12 8.2386147924e-11 0.0012366353177 6.9479769772e-15 1.7061970419e-11 
103.01635936 3.9475110493e-19 1.3902084263e-16 0.00088597451227 2.0640742435e-17 2.1334949931e-06 1.8655571464e-10 1.9497137756 0.035737253327 
98.108496088 1.3685255307e-14 1.8777298381e-18 3.7586326929e-08 4.9477877611 4.6178472042e-17 5.9651619139e-10 0.027180794708 2.8168834294e-09 
2.6046745561e-10 1.613267805 1.9958339589 0.0064668438383 1.134868849e-15 0.0018613262869 2.0630735908e-11 4.0710665344e-21 3.2301370147e-07 
8.7277211301e-11 0.66592424227 1.5299034001e-13 0.0021274243398 10.483482258 0.56282398907 2.4191077508e-15 4.8707046043e-15 0.051033743525 
5.1379905625e-09 0.0039119692921 0.013760214734 3.799268028e-06 5.2594729927e-06 1.6286060106 1.6422834858e-11 0.37665720231 4.9257706546 
3.3329595803e-15 4.5387038546e-09 6.3558718291 9.4357930675e-14 0.00077455681226 0.00099390278835 0.00059760142727 23.003606396 0.00024825012744 
0.034953154361 7.9227193593e-19 5.9024641282 3.2195093668e-18 5.9561476502e-20 7.3813360458e-09 0.11551644509 4.832300029e-05 6.8898699094e-05 
4.4538809948e-12 5.041831388e-12 0.98882957329 8.5551833441e-06 10.983669128 0.63847951925 1.0498712701e-07 5.3673783496 0.16903735219 
2.2071624917e-21 3.1373903564e-12 2.4988895531e-07 1.1748225772e-12 3.9982006783 0.0066618804116 8.6022383302e-20 0.011917136674 1.2913336903e-11 
8.8357574541 0.00015932349409 0.46766371375 9.4593533281e-09 6.6338322652e-17 2.5249282341e-23 3.2108637879 294.0077458 0.48057244179 
6.5126669487e-07 1.9837672217e-09 4.998715448e-08 9.4506744396e-09 99.870732547 1.1990448797 1.6805058743e-05 1.1418880726e-17 6.1425752545e-20 
0.02076791085 0.077332203751 5.2577050481e-09 10.339106103 9.6359790177 2.2520399045e-13 5.9971666753 3.4511814992e-11 7.095960629e-13 
1.6643006757e-07 4.6721414079 20.121177769 6.011880711 0.0045606971317 0.023541163005 1.39516006e-05 35.234668187 0.02255733244 
2.3396884435e-05 0.0021209981431 46.331031511 9.486576224e-17 2.0949316892e-16 9.0660163172 2.2999429905e-09 7.5961637152e-13 8.7576562343e-18 
119.38370404 0.00011194929008 0.0038266493395 3.7142880861e-18 0.18140371988 1.121222873e-11 0.10988406683 3.5571123445e-13 4.291130348e-11 
4.3551119506e-08 5.9385714017e-13 6.1980626361e-12 16.952717045 3.4447802058e-11 10.278070086 8.6185663614 7.7712878763 9.2377417119e-06 
3.084634758e-12 2.9713160334e-12 5.9099363815e-07 0.029277477321 2.3648360666e-19 4.5632080598e-11 3.6923589054e-10 10.050671487 4.8199245168 
4.2703361829e-14 28.144376303 2.539229856 1.4659524044 9.3994635459e-09 0.97951285303 3.3256613351e-13 1.5114356172 0.42626616451 
2.9184113104 19.500034141 3.9530982499e-15 7.4423476055 0.0079012142862 0.0021556923778 0.0016469311314 0.17820015065 3.4577469326e-07 
9.2663521405e-06 0.0013355528288 1.5504960401e-19 3.1366871857 1.0239252586e-14 0.22598059209 9.8679397426e-13 4.6787793957e-07 3.5672588805e-14 
0.073082005231 0.052020265412 1.285404523e-07 0.1330321382 0.064413633166 0.094548849166 2.8943222134e-08 5.1033329891e-06 70.363409585 
95.905210698 2.1391789997e-14 1.2254500041e-21 0.016606705607 1.9835620184e-19 5.3929866007 4.1249165748 1.6706960327e-11 9.0790944989e-16 
1.0497283876e-08 6.1271856268e-12 2.9076645008e-09 7.4155525335e-08 1.5729147786 1.3377843051e-17 2.0291298423e-12 8.4192638702e-15 6.7340077681e-05 
4.3764760881e-08 2.9156600685e-16 3.0647584554e-14 0.05034097356 0.001116670552 0.0057856862173 9.7221434122 4.094628081e-12 6.1661806851 
7.1317044285e-09 11.298942041 1.6883019398 2.8717605543e-05 8.41752703e-07 2.6228837723e-07 0.58175065264 0.85843337941 1.7604088534e-06 
9.511494522 9.92125144 266.59581008 2.0266532873e-19 4.3579841366e-06 0.57038780133 3.9605839592 1.395972876 9.6533980023e-07 
2.1569874409e-19 9.9221476166e-14 5.4572522456e-13 3.9928402342e-09 3.2669778358e-21 1.1732271911e-18 1.1079197081e-13 5.5951410937e-12 0.00010508127428 
0.0095237854446 1.4834880218e-06 1.3224027113e-11 1.2321038732 1.4036726508e-21 0.0099260949373 7.205683464e-11 0.00013603379984 2.3455145265e-08 
2.1690283409e-06 1.1243148306e-10 4.6239672212e-06 1.2125836913e-06 3.4836453113 0.0012752467336 5.0407843355e-13 6.9231541274e-06 6.2247794036e-14 
11.406894797 0.0012955056135 2.039223199e-05 0.00014864069646 7.4169167894e-13 2.0435023385e-15 3.2801947831e-05 2.6694426629e-05 1.0526266784 
5.6210574206 1.9698736831e-05 3.9183266141e-06 24.127443561 8.6572610331e-20 9.9800088418e-10 2.981551512e-18 3.252446852e-05 0.00063261672941 
0.078714526162 1.6848708251e-19 2.783473172e-05 1.8883266875e-18 0.036743157055 0.4271465785 0.028551155155 1.5621039173e-10 7.8781764055e-09 
8.1831097796e-05 5.3246884815e-09 3.7861139757e-12 2.0054156695e-11 0.00090748213042 135.9622104 5.9321466032e-12 11.336379837 17.947099894 
1.7490727797e-15 2.0288315593e-14 17.663559597 6.9054483536e-16 2.8186497702e-16 1.0747026276e-19 67.866839495 26.27414523 2.0201344297e-08 
0.00028497507215 5.063730954e-19 6.6880736172 6.4692351905e-21 3.5582501202e-18 0.00018496476604 3.7570065215e-05 2.0856585398e-20 0.0024488047481 
0.51347552958 7.4975100245 1.1376599644e-15 46.562547126 0.071402227989 0.71721379519 1.269980125 0.035176800567 9.2533644369 
6.8493654207e-14 1.7659363737e-08 7.4712132075e-15 4.9374328069e-12 1.1711371636e-19 1.9890485745e-15 8.9699935162 0.02925435934 9.9256792031e-05 
76.812027052 1.6473739834e-14 8.2713761745 2.4941664822e-19 4.6661722569e-05 4.7560089271e-05 1.152784994e-15 8.3163422527e-15 1.6348743713e-12 
7.096896796 11.942188655 2.5633556101 0.00020450372192 4.3158673985e-14 1.9333535362e-06 4.6245471009e-12 6.6704419808e-05 1.6964196839e-05 
2.1582815384e-07 2.48663805e-15 0.25019871897 5.8713653837e-19 3.463460859 6.40173215e-05 0.0018377062798 14.2490359 0.011904478087 
10.010883206 0.0016776237908 1.2345488789 1.4054009391 3.3314827798e-10 1.3420919677e-15 0.10770671897 2.9503532689e-08 0.0012519104026 
9.9318461051 1.6362431038e-09 28.304951455 0.021124170141 34.10783985 0.0017304951239 3.0066188847e-12 1.1351705331e-05 2.0819656378e-18 
7.9508096065 0.9272005193 2.5757346337 4.7579549905e-20 86.843488027 2.0667790076 0.65141278042 161.97359783 9.2721652805e-09 
6.145888968e-09 6.7552798179e-20 14.617385548 1.2238568061e-05 0.00025218635569 0.026388143771 1.1886443512e-08 0.13555683083 5.8246582974 
3.4145689338 0.0064760706202 1.6793417214e-15 0.0067543385411 1.1287117528e-08 3.040531464 0.73419351468 9.2072077905e-07 0.00059638504632 
2.525875493e-12 3.8109158021e-15 1.5982504488e-05 4.5889607886e-06 0.00055071583277 9.2710309846e-08 0.00012830376334 7.0543384606e-06 7.858753537e-09 
0.00087715117152 31.600884651 0.010121964843 0.019965372485 3.3830742305e-20 5.8637232319e-11 3.7165970625e-12 0.049131717564 1.6853287571e-08 
0.0016908016626 1.0652022503e-17 0.10114128357 4.1934646817 2.1899548321e-12 0.00051763662194 5.9672144149e-17 1.2805590446e-19 5.0248560777e-05 
0.0088662616309 3.8191663858e-15 2.8683571921e-20 2.1784735896e-06 3.2164780465 4.7766741272e-09 2.7199054148 0.0008035035228 1.2541993992e-12 
1.7645410873e-11 5.8898031806e-11 3.2861073715e-06 5.4106825754e-13 1.2833362572e-18 2.8416370135e-18 7.2423651207e-12 2.5156553709e-13 3.0202087577e-12 
1.6607298443e-19 1.3200041543e-11 3.4975222323 2.5086856708e-11 3.9936218516e-16 65.799361317 0.00031575215258 5.7006005718e-08 5.0692302029e-08 
1.0934455251e-14 2.8346811118e-17 2.2061413619e-08 4.0680210172e-14 0.00072939177052 15.916987853 2.6130584271e-06 1.7428409707e-15 27.264118313 
0.96539490065 0.42675461218 0.032061848769 0.00040291164598 6.9241189667e-16 35.467443046 9.8733304924e-09 21.715232506 0.093032865261 
1.7991391837e-09 5.9333616772e-15 9.3649903315e-11 0.183130994 0.0010357493585 0.00012307355836 1.3053454314 0.013699419851 1.2610615533e-05 
1.6232454831e-08 7.1048855634 3.4420857063e-05 2.7204994161 2.6704406983e-12 4.6095753591e-06 0.0096898210525 0.1112810262 5.2906801188e-16 
9.324252616e-05 0.0013375534516 1.3322053389e-17 0.012282202517 9.9957370885e-21 3.5977225214e-13 5.5430447182e-17 2.0876405812e-07 0.037934374502 
9.8836806388e-07 5.7781902278e-05 0.0015479502737 1.3867049993e-16 0.00038636384329 6.7995334095e-14 1.5268276761e-20 1.7575286974e-08 0.080194864486 
15.783062577 4.5026051458e-14 2.791016426e-12 8.7094043561 0.00012930214811 2.9099545391e-11 1.182478136e-16 11.333087262 0.0014255490943 
24.868284977 5.3533341527e-15 8.6006707214e-21 0.0044311324533 3.9402737421e-17 313.91432319 29.49293526 7.4241152086e-10 7.3252989613e-06 
6.5365589327e-18 2.02847946e-15 6.5595426609e-06 5.3912574252e-20 1.3104546887 32.892266556 2.620809656e-05 0.0010809894219 6.8153949333e-09 
0.28356502486 9.2303792599e-07 0.0090110601169 14.213729243 1.6445126769e-09 2.6533747043e-15 2.7770169672e-05 9.5448224546e-09 33.57731563 
1.8085108601e-15 11.858204218 0.24175946715 5.3328814001e-08 0.0042957902106 3.8136837376e-16 11.30497408 6.295244787e-20 7.9103147528 
25.367527286 7.4608589263e-16 1.2321858865e-14 1.0745177236e-07 55.939999123 1.7965567496e-14 41.118203993 18.975673127 6.0043140529e-18 
1.6108225309e-12 1.4976867945e-10 4.7558540657e-16 6.7140381808e-10 0.052220613363 1.115821902e-16 0.0016780854526 2.3978753235e-17 3.9628959064e-19 
1.0661127896e-10 2.2714802739e-16 1.7840921414e-14 3.2718963332 7.7779115887 2.465792198e-05 82.932744081 0.0012748705073 4.440069685e-12 
3.3232951498e-18 0.00023802603628 7.5416283703e-12 2.3147377331e-18 2.160774041 1.0954160961e-07 2.4514232789e-06 2.1699987877e-17 0.077452126757 
0.10036234147 0.00060001683335 12.861974682 15.247271156 1.5473824108e-18 9.2108344473e-16 1.0299182181e-11 2.2090002228 3.6056670154 
3.6834206748e-05 0.0099801505056 0.00065895705089 0.00070123939361 40.178208872 4.9266453826e-11 0.010477885885 0.77505817621 1.1672468595 
3.2104637382e-06 16.360583652 0.00023448102342 0.020765458264 1.5935904661e-12 5.5779355457e-06 3.9381961958e-21 21.383275255 0.092917104295 
0.79214914167 5.5462073396e-13 1.4457653257e-09 0.92909172263 3.929699086e-14 0.00028227164918 1.7702613908 3.6807958128e-07 3.3258791147e-16 
0.030096928439 5.6066723774e-24 5.8705183673e-09 0.025957190908 2.1002017381e-05 8.747176391e-18 0.30687668585 0.00088221933928 0.0025326373716 
12.723928169 14.962529316 40.900748738 1.8598118202e-13 5.0672899644 5.2482070693e-07 2.7336471684e-06 1.7790119827e-09 4.1727080607e-20 
3.2913341433 1.5635200204e-13 1.0784107696e-11 2.6919186503e-15 1.9608280247e-20 0.043551141507 0.56222375821 1.4323683842e-19 0.74724302317 
3.1564911586 0.0027712646075 0.00081821581607 6.1852979262e-17 4.152548722e-21 0.051459419827 8.4232992779e-06 3.2661345389e-21 0.14362887291 
1.4333490503e-09 0.00023771001575 0.051417000313 0.0039292090473 67.578829858 31.072939585 6.7192826744e-06 7.5260458106e-13 0.10580154033 
0.0017716981778 0.21350867049 4.0347734454e-16 26.39955263 92.669641156 0.5258399051 0.3055234917 5.545031078e-11 2.8486559783e-14 
5.4601429437e-16 4.4043973821 6.3436896371 0.031726851323 0.0050340273783 1.906479145e-14 0.073091019847 0.17863702885 5.0988912141e-15 
0.0014495511951 0.0003724658325 0.0012518101838 0.055697394247 0.0012781740697 0.0020014345776 0.0003633511111 1.1062761423e-16 16.131020233 
0.42155239407 3.2529224113 3.5824860992e-05 0.780812627 2.4547852387e-09 45.741913753 4.1500443768e-13 2.5681683314e-07 0.26249658074 
0.042153705998 2.6213026765e-06 6.9189755857 9.7815468511e-15 6.7751789279e-13 3.7338384714e-12 16.486415858 4.4007258394e-10 6.0078899746e-09 
8.5986808911e-07 2.2807749318e-06 8.7617985744e-08 1.5522008323e-07 2.9447447068e-09 1.2753701578e-10 6.3758195285e-12 0.00033499809757 5.0977428251e-10 
1.5497163944e-13 4.3942352186e-07 5.6981283759e-06 5.0313762581e-14 3.2006876328e-06 3.5214372542e-13 0.0011817222886 0.0017293549182 210.63482584 
1.0483860672e-12 2.1309177405e-19 0.037889493484 0.0029210679884 6.6336240649e-14 1.7197843979e-15 94.433710791 2.7260979184 0.00024197177456 
8.6041994682e-06 3.8594924578e-13 20.896919638 1.6741434348e-15 0.00043400597972 1.5051773317e-09 2.0825417421e-14 22.464415983 7.8962369561e-21 
12.691427839 3.6552734937e-09 8.1270988401e-12 0.0014769130128 4.9857967459e-12 2.0122380754e-08 2.9748964801e-15 1.2932845574e-15 2.0864019693e-19 
1.8068605243e-08 8.89062182e-16 10.065301715 5.5646063337e-07 9.2373490159 4.2516679842 1.0117320118e-19 1.3778237684e-17 9.549867922e-15 
0.0011626977911 50.817206217 3.7589306455e-18 1.7784180888e-05 5.7963684814e-08 7.1239024566e-07 4.0649147788 2.3068703673e-05 1.6970051604e-15 