# vtk DataFile Version 4.2
vtk output
ASCII
DATASET UNSTRUCTURED_GRID
POINTS 4337 double
0 0 0 1 0 0 1 1 0 
0 1 0 0.016666666667 0 0 0.033333333333 0 0 
0.05 0 0 0.066666666667 0 0 0.083333333333 0 0 
0.1 0 0 0.11666666667 0 0 0.13333333333 0 0 
0.15 0 0 0.16666666667 0 0 0.18333333333 0 0 
0.2 0 0 0.21666666667 0 0 0.23333333333 0 0 
0.25 0 0 0.26666666667 0 0 0.28333333333 0 0 
0.3 0 0 0.31666666667 0 0 0.33333333333 0 0 
0.35 0 0 0.36666666667 0 0 0.38333333333 0 0 
0.4 0 0 0.41666666667 0 0 0.43333333333 0 0 
0.45 0 0 0.46666666667 0 0 0.48333333333 0 0 
0.5 0 0 0.51666666667 0 0 0.53333333333 0 0 
0.55 0 0 0.56666666667 0 0 0.58333333333 0 0 
0.6 0 0 0.61666666667 0 0 0.63333333333 0 0 
0.65 0 0 0.66666666667 0 0 0.68333333333 0 0 
0.7 0 0 0.71666666667 0 0 0.73333333333 0 0 
0.75 0 0 0.76666666667 0 0 0.78333333333 0 0 
0.8 0 0 0.81666666667 0 0 0.83333333333 0 0 
0.85 0 0 0.86666666667 0 0 0.88333333333 0 0 
0.9 0 0 0.91666666667 0 0 0.93333333333 0 0 
0.95 0 0 0.96666666667 0 0 0.98333333333 0 0 
1 0.016666666667 0 1 0.033333333333 0 1 0.05 0 
1 0.066666666667 0 1 0.083333333333 0 1 0.1 0 
1 0.11666666667 0 1 0.13333333333 0 1 0.15 0 
1 0.16666666667 0 1 0.18333333333 0 1 0.2 0 
1 0.21666666667 0 1 0.23333333333 0 1 0.25 0 
1 0.26666666667 0 1 0.28333333333 0 1 0.3 0 
1 0.31666666667 0 1 0.33333333333 0 1 0.35 0 
1 0.36666666667 0 1 0.38333333333 0 1 0.4 0 
1 0.41666666667 0 1 0.43333333333 0 1 0.45 0 
1 0.46666666667 0 1 0.48333333333 0 1 0.5 0 
1 0.51666666667 0 1 0.53333333333 0 1 0.55 0 
1 0.56666666667 0 1 0.58333333333 0 1 0.6 0 
1 0.61666666667 0 1 0.63333333333 0 1 0.65 0 
1 0.66666666667 0 1 0.68333333333 0 1 0.7 0 
1 0.71666666667 0 1 0.73333333333 0 1 0.75 0 
1 0.76666666667 0 1 0.78333333333 0 1 0.8 0 
1 0.81666666667 0 1 0.83333333333 0 1 0.85 0 
1 0.86666666667 0 1 0.88333333333 0 1 0.9 0 
1 0.91666666667 0 1 0.93333333333 0 1 0.95 0 
1 0.96666666667 0 1 0.98333333333 0 0.98333333333 1 0 
0.96666666667 1 0 0.95 1 0 0.93333333333 1 0 
0.91666666667 1 0 0.9 1 0 0.88333333333 1 0 
0.86666666667 1 0 0.85 1 0 0.83333333333 1 0 
0.81666666667 1 0 0.8 1 0 0.78333333333 1 0 
0.76666666667 1 0 0.75 1 0 0.73333333333 1 0 
0.71666666667 1 0 0.7 1 0 0.68333333333 1 0 
0.66666666667 1 0 0.65 1 0 0.63333333333 1 0 
0.61666666667 1 0 0.6 1 0 0.58333333333 1 0 
0.56666666667 1 0 0.55 1 0 0.53333333333 1 0 
0.51666666667 1 0 0.5 1 0 0.48333333333 1 0 
0.46666666667 1 0 0.45 1 0 0.43333333333 1 0 
0.41666666667 1 0 0.4 1 0 0.38333333333 1 0 
0.36666666667 1 0 0.35 1 0 0.33333333333 1 0 
0.31666666667 1 0 0.3 1 0 0.28333333333 1 0 
0.26666666667 1 0 0.25 1 0 0.23333333333 1 0 
0.21666666667 1 0 0.2 1 0 0.18333333333 1 0 
0.16666666667 1 0 0.15 1 0 0.13333333333 1 0 
0.11666666667 1 0 0.1 1 0 0.083333333333 1 0 
0.066666666667 1 0 0.05 1 0 0.033333333333 1 0 
0.016666666667 1 0 0 0.98333333333 0 0 0.96666666667 0 
0 0.95 0 0 0.93333333333 0 0 0.91666666667 0 
0 0.9 0 0 0.88333333333 0 0 0.86666666667 0 
0 0.85 0 0 0.83333333333 0 0 0.81666666667 0 
0 0.8 0 0 0.78333333333 0 0 0.76666666667 0 
0 0.75 0 0 0.73333333333 0 0 0.71666666667 0 
0 0.7 0 0 0.68333333333 0 0 0.66666666667 0 
0 0.65 0 0 0.63333333333 0 0 0.61666666667 0 
0 0.6 0 0 0.58333333333 0 0 0.56666666667 0 
0 0.55 0 0 0.53333333333 0 0 0.51666666667 0 
0 0.5 0 0 0.48333333333 0 0 0.46666666667 0 
0 0.45 0 0 0.43333333333 0 0 0.41666666667 0 
0 0.4 0 0 0.38333333333 0 0 0.36666666667 0 
0 0.35 0 0 0.33333333333 0 0 0.31666666667 0 
0 0.3 0 0 0.28333333333 0 0 0.26666666667 0 
0 0.25 0 0 0.23333333333 0 0 0.21666666667 0 
0 0.2 0 0 0.18333333333 0 0 0.16666666667 0 
0 0.15 0 0 0.13333333333 0 0 0.11666666667 0 
0 0.1 0 0 0.083333333333 0 0 0.066666666667 0 
0 0.05 0 0 0.033333333333 0 0 0.016666666667 0 
0.49166666667 0.98556624327 0 0.015226257951 0.49094414802 0 0.50833333333 0.01443375673 0 
0.98498566592 0.50869210525 0 0.39166666667 0.013182344919 0 0.014092194546 0.60771341243 0 
0.9840923776 0.39277745592 0 0.60833333333 0.98556624327 0 0.62525551531 0.014403078076 0 
0.014524354383 0.37488711367 0 0.98506695639 0.62483997793 0 0.375 0.98556624327 0 
0.29266828667 0.015774730045 0 0.98497301309 0.28990572128 0 0.70833333333 0.98556624327 0 
0.015390011072 0.70991624931 0 0.98676082106 0.72412772914 0 0.275 0.98556624327 0 
0.72541734167 0.012972421589 0 0.014904175112 0.2739124525 0 0.20833333333 0.01443375673 0 
0.79166666667 0.98556624327 0 0.98509148771 0.20956900989 0 0.01443375673 0.79166666667 0 
0.80833333333 0.01443375673 0 0.015124185708 0.19161866647 0 0.9850438905 0.80751432539 0 
0.19166666667 0.98556624327 0 0.85833333333 0.98556624327 0 0.014121029014 0.85833333333 0 
0.14166666667 0.01443375673 0 0.98759019215 0.14143693021 0 0.98556624327 0.875 0 
0.125 0.98556624327 0 0.87458265833 0.012972421589 0 0.01443375673 0.125 0 
0.98622299433 0.55822453833 0 0.54166666667 0.98556624327 0 0.425 0.98556624327 0 
0.325 0.98556624327 0 0.01443375673 0.44166666667 0 0.98640722406 0.67473971232 0 
0.575 0.01443375673 0 0.015869085572 0.53996752425 0 0.014840310146 0.32578846252 0 
0.675 0.01443375673 0 0.98536405319 0.34189743683 0 0.65833333333 0.98556624327 0 
0.98556624327 0.44166666667 0 0.015840429884 0.65614545051 0 0.341249325 0.012959117371 0 
0.44208400834 0.012972421589 0 0.015591057985 0.9104940068 0 0.90833333333 0.98556624327 0 
0.091666666667 0.01443375673 0 0.98502898658 0.093356035331 0 0.075 0.98556624327 0 
0.98512737035 0.92400478862 0 0.92486963505 0.014422260192 0 0.015067916236 0.075447124014 0 
0.94166666667 0.98556624327 0 0.014809050345 0.94182003332 0 0.98415303694 0.77243133732 0 
0.98670026381 0.84271289566 0 0.74166666667 0.98556624327 0 0.225 0.98556624327 0 
0.15833333333 0.98556624327 0 0.98502738383 0.057338738873 0 0.575 0.98556624327 0 
0.75833333333 0.01443375673 0 0.014488033782 0.24102048943 0 0.84166666667 0.01443375673 0 
0.015845777768 0.16042556336 0 0.01138198052 0.40795855664 0 0.825 0.98556624327 0 
0.54166666667 0.01443375673 0 0.45833333333 0.98556624327 0 0.98440739531 0.59321126922 0 
0.98426199828 0.47737493267 0 0.057749054996 0.014096423475 0 0.98589314221 0.17443379443 0 
0.01443375673 0.825 0 0.014673219727 0.74089537493 0 0.175 0.013551549901 0 
0.01443375673 0.575 0 0.98529504721 0.25833515233 0 0.475 0.01443375673 0 
0.24179703162 0.014422260192 0 0.98506173125 0.95977876091 0 0.041802883627 0.98564488817 0 
0.95829189206 0.013946587987 0 0.015287717588 0.043965525831 0 0.97492937718 0.98588713258 0 
0.015094954124 0.97346957302 0 0.9838998273 0.024922079696 0 0.025070622821 0.014112867418 0 
0.925 0.98556624327 0 0.91666666667 0.97113248654 0 0.9 0.97113248654 0 
0.90833333333 0.95669872981 0 0.89166666667 0.95669872981 0 0.9 0.94226497308 0 
0.88333333333 0.94226497308 0 0.89166666667 0.92783121635 0 0.875 0.92783121635 0 
0.88333333333 0.91339745962 0 0.86666666667 0.91339745962 0 0.875 0.89896370289 0 
0.85833333333 0.89896370289 0 0.86666666667 0.88452994616 0 0.85 0.88452994616 0 
0.85833333333 0.87009618943 0 0.84166666667 0.87009618943 0 0.85 0.8556624327 0 
0.83333333333 0.8556624327 0 0.84166666667 0.84122867597 0 0.825 0.84122867597 0 
0.83333333333 0.82679491924 0 0.81666666667 0.82679491924 0 0.825 0.81236116251 0 
0.80833333333 0.81236116251 0 0.81666666667 0.79792740578 0 0.8 0.79792740578 0 
0.80833333333 0.78349364905 0 0.79166666667 0.78349364905 0 0.8 0.76905989232 0 
0.78333333333 0.76905989232 0 0.79166666667 0.75462613559 0 0.775 0.75462613559 0 
0.78333333333 0.74019237886 0 0.76666666667 0.74019237886 0 0.775 0.72575862213 0 
0.75833333333 0.72575862213 0 0.76666666667 0.71132486541 0 0.75 0.71132486541 0 
0.75833333333 0.69689110868 0 0.74166666667 0.69689110868 0 0.75 0.68245735195 0 
0.73333333333 0.68245735195 0 0.74166666667 0.66802359522 0 0.725 0.66802359522 0 
0.73333333333 0.65358983849 0 0.71666666667 0.65358983849 0 0.725 0.63915608176 0 
0.70833333333 0.63915608176 0 0.71666666667 0.62472232503 0 0.7 0.62472232503 0 
0.70833333333 0.6102885683 0 0.69166666667 0.6102885683 0 0.7 0.59585481157 0 
0.68333333333 0.59585481157 0 0.69166666667 0.58142105484 0 0.675 0.58142105484 0 
0.68333333333 0.56698729811 0 0.66666666667 0.56698729811 0 0.675 0.55255354138 0 
0.65833333333 0.55255354138 0 0.65 0.56698729811 0 0.64166666667 0.55255354138 0 
0.63333333333 0.56698729811 0 0.625 0.55255354138 0 0.61666666667 0.56698729811 0 
0.60833333333 0.55255354138 0 0.6 0.56698729811 0 0.59166666667 0.55255354138 0 
0.58333333333 0.56698729811 0 0.575 0.55255354138 0 0.56666666667 0.56698729811 0 
0.55833333333 0.55255354138 0 0.55 0.56698729811 0 0.54166666667 0.55255354138 0 
0.53333333333 0.56698729811 0 0.525 0.55255354138 0 0.51666666667 0.56698729811 0 
0.50833333333 0.55255354138 0 0.65 0.53811978465 0 0.53333333333 0.53811978465 0 
0.5 0.56698729811 0 0.49166666667 0.55255354138 0 0.48333333333 0.56698729811 0 
0.475 0.55255354138 0 0.46666666667 0.56698729811 0 0.45833333333 0.55255354138 0 
0.45 0.56698729811 0 0.44166666667 0.55255354138 0 0.45 0.53811978465 0 
0.43333333333 0.56698729811 0 0.43333333333 0.53811978465 0 0.44166666667 0.52368602792 0 
0.425 0.52368602792 0 0.43333333333 0.50925227119 0 0.41666666667 0.50925227119 0 
0.425 0.49481851446 0 0.40833333333 0.49481851446 0 0.41666666667 0.48038475773 0 
0.4 0.48038475773 0 0.40833333333 0.465951001 0 0.525 0.58142105484 0 
0.44166666667 0.58142105484 0 0.425 0.58142105484 0 0.39166666667 0.465951001 0 
0.4 0.45151724427 0 0.38333333333 0.45151724427 0 0.39166666667 0.43708348754 0 
0.38333333333 0.48038475773 0 0.43333333333 0.59585481157 0 0.41666666667 0.59585481157 0 
0.375 0.43708348754 0 0.38333333333 0.42264973081 0 0.4 0.42264973081 0 
0.39166666667 0.40821597408 0 0.40833333333 0.40821597408 0 0.375 0.40821597408 0 
0.725 0.69689110868 0 0.38333333333 0.39378221735 0 0.36666666667 0.39378221735 0 
0.425 0.6102885683 0 0.40833333333 0.6102885683 0 0.375 0.37934846062 0 
0.35833333333 0.37934846062 0 0.41666666667 0.62472232503 0 0.4 0.62472232503 0 
[...]
CELL_DATA 8432
FIELD FieldData 3
radiation%20flux%20density 1 8432 double
2.5320501614e-18 3.831299385e-18 2.0869274098 3.5330302489e-20 13.130781483 4.2776769009e-20 6.6767354077e-18 2.4288555789 2.1722535384e-21 
13.109917078 2.3753831525e-18 1.434611721e-18 1.0596812723e-18 0.0025990520413 0.62800755716 4.8687664758e-21 3.4173093556e-17 8.4309637472e-18 
1.8677166938e-20 4.8200526715e-21 6.5597800729 18.243032374 6.9977518355e-19 0.31632626436 1.1721735026e-17 5.2595414255 2.0231980849e-17 
0.13243428771 0.024612319766 3.9886867802 0.042842228592 1.3706695488e-18 0.26647108364 8.1460457497 2.4569946416e-17 1.0170169542 
16.512713076 0.0084127234056 5.3344604921e-20 5.9516926813e-18 2.0629620673e-18 0.0012261986762 2.237137779 13.875243925 2.1897134286e-20 
0.0024908564565 1.2456275018 0.017285102413 13.144247697 16.92779768 1.9090410975e-17 17.904414174 7.0371638652 1.151862605e-17 
4.6657326435 1.0236159518e-20 0.035497742909 0.0019458010935 0.1354337852 1.9714339394e-21 0.0059136160322 8.7050018722e-19 7.346421469e-18 
0.45801565401 5.918373222e-18 1.8765028757e-17 8.8112862358 1.2965797018e-17 2.4634147648e-17 2.8523193467e-17 15.494403534 0.71147204859 
6.2532207492e-21 1.0798234769e-19 0.0093659771663 0.0012104514808 3.4908560815 0.0077384977144 0.035336423059 3.7236271222e-18 5.1052052483e-21 
2.5804334328e-18 17.967953557 3.3593396923e-17 11.218040864 2.7162323378e-17 2.0479087309 6.0507117441e-20 20.549509851 0.0027607945774 
16.695580109 5.1350366527e-19 7.2558025464 6.6899291467 18.813097081 8.6188447181e-21 4.168358108e-19 2.0898139116e-17 0.060673410208 
19.846556564 4.7508508691e-18 0.3016280836 1.5184353063 4.5759031138 0.0054195108686 0.23171928445 1.8260509224e-17 0.0040204870355 
5.9331789894 2.9878564007e-20 1.9294980459e-17 8.3246613624 17.486753536 9.7760370802e-18 3.1772354068 3.3849702876e-17 3.8314350841e-20 
0.019881295798 1.6997680168 1.935575252e-18 3.0207810332e-17 13.120231407 0.41403088762 0.024205344518 0.00070980117604 1.9030542683e-21 
1.0544432993e-20 1.5633763136e-17 7.1950465971e-20 12.145738038 3.8245148894e-18 1.2424020461 1.9863480374 0.00080321258057 1.3171910038e-18 
1.1027008499e-18 2.2778588293e-19 0.88895642041 2.1556902254e-18 1.361182478e-17 0.23424016492 1.5188808482e-20 9.1392892566e-18 6.6227951339 
17.692151552 2.9473386838e-20 4.7620741473e-18 5.1175073645e-21 1.3892540357e-18 1.3642620493e-17 2.7950185418e-18 0.19302996109 1.1150439152e-17 
3.6940717579 2.1223295563e-20 3.5523256566e-17 2.0726867465e-20 1.8893324379e-17 0.041308070201 2.8316055056 5.1480355496e-18 6.8574305755e-19 
0.0010563560958 0.0059035343104 2.3960656764e-17 10.251562448 13.994287526 5.7509197405 0.10119443139 2.6714361375 4.8069316772e-18 
1.7737127826 16.32499322 0.0078166478521 6.0734840538e-17 9.242782054 0.2758626222 0.0097177468538 0.013435698535 4.5646508202e-21 
8.4268501267e-19 0.0047995998402 0.0083082461089 0.0054185274831 0.0051585974262 1.8424568063e-17 14.837070651 6.1376222415e-17 0.0057310365581 
0.0066172905624 0.0041036490214 0.022468363253 0.0017993382298 7.3227697482e-19 2.0356085791e-05 3.0852389947e-05 9.5035927758e-05 0.0011594190675 
2.5593752265e-05 0.00067355041415 1.3656708736e-06 1.1828299439e-06 8.051781359e-07 1.0546315369e-07 0.0010199036139 5.8245938064e-09 3.2931980929e-11 
1.0869756238e-12 8.1328367942e-12 8.3811501653e-13 9.8276292497e-14 8.5888145036e-15 5.123583148e-15 2.0153138797e-19 4.8570845221e-19 1.2576389734e-19 
0.026020637133 0.016282295674 2.386347239e-19 0.007746861315 1.3952775355 1.0350328524e-16 1.0385796813e-16 1.9450567786e-17 9.8796292323e-17 
1.1459208124e-17 1.5795460105e-16 2.9395202073e-16 7.3133400387e-16 5.5658108356e-16 1.4047670382e-15 8.1332387051e-15 2.0702665775e-15 3.5234915894e-17 
1.2917442273e-16 9.8489844687e-17 1.1479274317e-14 1.0506278716e-16 2.1869701242e-13 1.8750392196e-14 3.0960639933e-14 4.7898378629e-16 7.2543322443e-16 
4.5253153715e-16 1.2874287793e-13 7.9075293661e-13 5.7753722538e-16 8.2779895151e-14 4.6516822541e-13 3.6463664193e-16 4.7345902479e-15 3.9997615098e-17 
1.1394848245e-12 1.0108562778e-11 4.8438294833e-16 3.7909410633e-15 1.4568761333e-12 6.4461686439e-16 4.7797098e-17 5.674842711e-17 8.9748849837e-14 
5.8758731432e-13 3.7841776771e-16 2.0607684471e-16 8.1030864458e-17 4.9068974791e-14 2.5977777765e-14 6.2484465845e-13 2.6647037734e-10 5.5299360909e-14 
5.0286359976e-17 3.3931742916e-12 2.2299129849e-14 1.1793941411e-15 3.6961285969e-10 2.532796128e-11 2.9300634406e-17 1.6235795381e-13 1.6989378765e-17 
3.1057753172e-13 7.0864365763e-10 4.2462047773e-16 1.8537985236e-17 7.7122107164e-18 4.8243784547e-09 9.6975509978e-10 5.4427483668e-10 2.6929583624e-17 
6.1196140638e-09 2.4774906823e-12 3.541619346e-10 3.4183497299e-11 0.00071178954739 2.424104176e-09 1.7076951956e-10 1.9037698533e-18 4.2773351462e-18 
1.1239083953e-08 3.707372645e-05 9.7272999092e-21 1.4801359039e-08 4.3454803773e-09 1.9396235987e-12 8.0008472319e-09 6.2310217493e-17 4.7694595293e-18 
4.1043573042e-11 3.0709870149e-16 3.1088599367e-08 2.6864221944e-08 1.1809897197e-08 6.1933090692e-12 1.2736840707e-15 9.777188543e-05 1.0135387923e-15 
2.5979492965e-09 1.5794653196e-15 1.8647575391e-15 0.0010108065766 5.5824538888e-08 7.9460306174e-16 2.1423922293e-11 0.051562843913 3.6731749922e-09 
1.1927929156e-10 9.686030207e-17 0.00012220571346 1.3478892625e-10 8.4037461492e-11 7.0468792508e-08 0.0015695321784 1.8287232766e-09 2.9045582521e-09 
0.013793391055 4.5915853348e-09 5.2736310526e-06 0.13477759378 1.1521852419e-18 1.5563053926e-07 4.7838524174e-11 6.764303639e-07 1.2497946875e-07 
7.7052724569e-05 8.0642488156e-08 4.6135507995e-11 8.9216578192e-17 0.01183570224 0.0037370472109 2.4293091833e-08 0.00073330866586 1.1790950437e-11 
2.492568601e-17 0.010929449131 4.8739301092e-08 6.7488618506e-12 6.9662818165e-18 1.2991931667e-16 0.26245136014 1.8528423232e-10 3.4903790977e-08 
0.61248859078 1.7218319093e-06 1.0274597459e-09 2.3314031783e-16 0.011620997389 3.1317058651e-16 15.586450506 0.013555315641 1.3109457359e-11 
3.281935353e-16 0.31027441169 2.1473400207e-08 1.0003800446e-18 1.4299927568e-07 3.5757116887e-12 8.3164964932e-07 0.063034158344 0.32012514956 
1.479401556e-16 2.1941665632e-07 1.0487530743e-11 0.00045913574164 3.4004793419e-12 1.1740211162e-14 4.0170006321e-17 0.00027520716198 0.10967276238 
0.41927159471 0.036936554473 1.7234310134e-13 2.8278890186e-17 6.5044307888e-09 0.059107165378 9.0871164524e-12 0.31469724844 0.75229549302 
0.041023830161 1.4176888374e-11 9.74150253 1.9505998115e-14 0.21284184067 0.10544136113 0.044976805843 6.6960087471e-11 1.1197710505e-13 
5.4419960604e-12 0.0022477939189 0.00097568899616 4.1675407947e-13 1.2000266203e-16 5.9669070318e-16 2.3783362031e-15 0.00020764781973 7.9385334071 
1.6732674361e-18 2.3822074471e-09 0.0006696827365 0.13436983867 3.9631647214e-17 0.0033402496845 0.0001529671658 1.2999064522e-09 0.0065425654995 
5.6146091561e-08 2.1812000387e-10 0.27040634992 2.6142667194e-09 0.11704273546 0.00043063937036 0.0026521408855 1.6702056836 0.14358715462 
0.00012092573662 8.7596793748e-16 7.1207384854 0.047571892352 1.4204292577e-06 1.2917142113e-18 2.3350972589e-15 5.1293982593e-16 0.093883312881 
8.5819564535e-07 6.8399624143e-17 0.0014261493956 0.0049092366173 0.0055043657409 16.151851621 0.17327237094 1.1381591855e-10 2.399004663e-10 
16.274096367 2.0013359377 1.5711538655 1.035443155 0.011955350275 0.00099665704683 5.7451410488 6.4926032645 5.217427056e-17 
2.7264426228e-07 0.12541211496 3.9130254712e-07 5.2058256543 6.398721524e-12 8.827518719e-11 0.00085295884672 2.8484325615e-14 2.8483724369e-11 
16.215976749 5.2335104015e-17 1.2849462662e-15 0.00080492484506 5.2972940293e-16 1.1826475496e-06 2.0316191646e-10 0.59827543985 0.0098594445173 
15.389210836 4.6457529814e-14 1.542276768e-16 2.7134887738e-08 1.2939310789 7.9455870216e-16 1.0574149909e-09 0.0082533845988 6.95771498e-09 
2.6749330512e-10 0.5063625327 0.61007548108 0.0051454621431 3.1586614757e-15 0.0018350102579 2.4394741102e-11 1.4324708093e-18 2.0252877078e-07 
9.2833435685e-11 0.24549802152 1.3457009733e-13 0.0018799025682 2.3943217201 0.14089317622 4.2989841332e-15 5.814813815e-15 0.011894896633 
1.5228209333e-08 0.0033825496515 0.0043636273265 2.0262365096e-06 2.7584169083e-06 0.5133421963 2.0093250869e-11 0.1514693323 1.2888946045 
1.1993172308e-14 1.4447599505e-08 1.3064154844 1.0088743843e-13 0.00071774180638 0.0010439751096 0.00069745811629 4.561861349 0.00032529232541 
0.010448172659 8.6230810938e-17 1.4953513988 1.9141040786e-16 1.3856618151e-17 2.7144517959e-08 0.031989961296 6.9382545937e-05 3.0571117398e-05 
5.8086796034e-12 1.5665197869e-12 0.33810918563 9.97181524e-06 2.1691668739 0.23341563239 7.0929303323e-08 1.3707402194 0.078278902421 
8.4492274659e-19 3.3123953349e-12 1.5772562769e-07 1.6557089602e-12 1.0845971431 0.0049537565169 1.881248313e-17 0.0038080678145 2.3326410514e-11 
2.0824945733 6.7170766592e-05 0.11832040863 2.9751814924e-08 3.2812128098e-15 1.6760653436e-20 0.90027740019 56.789346364 0.12139613037 
3.847059719e-07 1.7129653064e-09 1.8263327957e-07 2.4335706748e-08 15.629677276 0.39991784371 8.1884948467e-06 3.6861964437e-16 1.343920441e-17 
0.013662183788 0.040658369221 1.4124696727e-08 2.3878183755 2.0089269438 3.2755343284e-13 1.4821345702 1.9644994702e-11 4.0613115002e-13 
2.0411227088e-07 1.2294610847 4.091314332 1.5205631909 0.0035432263403 0.0072035355473 6.8491794714e-06 7.3471521005 0.014402324335 
1.1105097605e-05 0.00075636794503 8.5372311669 1.1354444436e-15 1.6184404033e-15 1.8987571251 5.9295579746e-09 9.5988126306e-13 4.0711696071e-16 
22.515299282 4.806003411e-05 0.0017963251854 2.4167638443e-16 0.082818627226 7.2082675762e-12 0.054489678871 4.8729518985e-13 4.8084039318e-11 
1.7550483157e-07 6.0922280228e-13 1.3119627321e-11 3.5476824293 3.8809129618e-11 2.1352657 1.8100593785 1.6391871097 4.6687564098e-06 
8.4776646402e-13 3.1227174294e-12 1.2815414974e-06 0.018040497206 4.1542219593e-17 5.1053101884e-11 4.0327370762e-10 2.2246413361 1.2600293146 
7.079099781e-14 5.2557821225 0.74468367416 0.34502144652 8.4110335498e-09 0.33233710443 1.9863424161e-13 0.48452585556 0.1562468938 
0.8137754841 3.9810913815 6.1822297915e-15 1.5188401156 0.0057995238704 0.002080259099 0.0016077435068 0.075519765806 8.9234634291e-07 
1.3193598691e-05 0.0013716445323 2.7822211126e-17 0.8761619052 8.0546050979e-15 0.051893581987 1.3744656872e-12 2.5525951703e-07 5.9711300245e-14 
0.03892915145 0.015134912313 4.2838076263e-07 0.064062459696 0.0185171303 0.026482777651 9.7042242822e-08 6.2320040498e-06 11.585352922 
15.100164157 4.560401019e-14 5.0667487855e-19 0.005293597574 3.9341536458e-17 1.155462119 0.90315811458 1.9871795474e-11 5.2157558895e-15 
7.881836177e-09 1.7767730628e-12 2.468504803e-09 2.7746336056e-07 0.47558567566 4.3567260416e-16 2.7424033286e-12 8.7995150319e-15 2.9962225789e-05 
3.1269596451e-08 1.781695089e-15 6.6132300084e-14 0.027356958291 0.0011668376269 0.0046749764264 2.2575759506 1.1009856614e-12 1.313595166 
5.5042932623e-09 2.27470086 0.51284578183 1.3473566473e-05 4.955033338e-07 2.5548143593e-07 0.2135728025 0.29857442486 9.7876958577e-07 
1.8874528057 2.0037294369 48.825612623 3.3904623289e-17 4.5171697052e-06 0.14267261627 1.0758800826 0.44345349373 1.7809926907e-06 
4.2218013506e-17 6.0781653661e-13 2.3964242472e-12 1.2449895867e-08 1.1906698882e-18 1.5574755096e-16 6.9046436156e-14 7.1672777231e-12 0.0001344146751 
0.0025815718674 2.3807449085e-06 1.5811350881e-11 0.40589119818 5.6615776733e-19 0.007362158041 4.2236581634e-11 5.7802344033e-05 1.5592682253e-08 
1.1995634623e-06 8.5946680295e-11 8.4314679361e-07 6.9120202304e-07 0.87588585445 0.00045647769021 7.4523897578e-13 5.9929118002e-06 5.0051815765e-13 
2.2748930463 0.0010418351029 9.9288507314e-06 0.0001803963046 9.9118193775e-13 5.7197017435e-15 7.8216168078e-06 3.9600269071e-05 0.35052854416 
1.4294990778 3.4712952562e-05 1.0110810963e-06 4.786874644 1.7394476839e-17 9.0460081749e-10 2.2664400564e-16 1.5145076093e-05 0.00067003699779 
0.041484914928 3.1917856888e-17 1.3352271394e-05 2.4591849334e-16 0.021293649033 0.16948214503 0.017458830595 1.6487459278e-10 2.9862264222e-08 
3.6030208845e-05 1.1560298209e-08 6.6378696823e-12 5.985951179e-12 0.00090016860317 26.876870385 6.8559925866e-12 2.5201273041 3.4061802085 
4.9970499298e-15 1.13902222e-14 3.6794398838 1.6740054892e-14 1.7462041601e-15 2.2822786827e-17 11.218732896 5.0105679499 1.403190163e-08 
0.00036578991163 6.4337619347e-17 1.6283200132 2.1157893054e-18 1.9664017e-16 8.5142909657e-05 1.877451406e-05 5.6451672349e-18 0.00056875025464 
0.19596853166 1.5872690697 3.1397929683e-15 8.574144367 0.014935448963 0.26106247935 0.30154215145 0.020621304086 2.127421419 
1.2489319704e-14 1.3361224648e-08 1.7088599725e-14 6.0448714963e-12 2.4020617333e-17 4.3880008364e-15 1.8353297985 0.01772714324 0.00010353314177 
12.428206169 1.3504393484e-14 1.972078702 3.9446784776e-17 2.1104046221e-05 2.2293339765e-05 3.5224275808e-14 3.4849885536e-14 2.1845922974e-12 
1.7382183747 2.3879285554 0.75026124397 0.00023642083177 3.7599781709e-13 3.0620249914e-06 1.0876788061e-11 3.0000228507e-05 1.0359426858e-05 
6.2962168829e-07 1.5950918372e-14 0.084706188046 8.3721362362e-17 0.92564824042 2.9438335787e-05 0.0017941335619 2.8405455015 0.0081622833528 
2.3239439106 0.00064374586004 0.29341172784 0.33099263662 2.8297803685e-10 3.4554649191e-15 0.046920398655 1.0889977912e-07 0.00099906791578 
2.0550538092 2.4645822745e-09 5.3654631563 0.013655457432 6.6001184555 0.0016986724278 2.1325934189e-12 7.9990666469e-06 2.72559046e-16 
1.657438128 0.22482824027 0.57726512369 1.1001193438e-17 13.780988236 0.60002608018 0.16831532965 32.284269184 2.1393450949e-08 
4.9311157805e-09 1.446712204e-17 3.1468716069 2.0990161979e-05 0.00034983384549 0.016354872953 9.1380726541e-09 0.064123167536 1.473246648 
0.74562822605 0.0051006651087 4.1122314459e-15 0.0049388460182 3.0992923486e-09 0.8630070662 0.26600118242 1.7448791271e-06 0.00055755466576 
9.2815605178e-13 7.9450898611e-14 5.7206633419e-06 4.8388834732e-06 0.00031416321379 1.0996138367e-07 9.1635460609e-05 1.3490300108e-05 6.5858143429e-09 
0.00077385262412 5.9380001269 0.0074536584702 0.013111581826 7.5328934407e-18 6.4781150094e-11 2.2693921665e-12 0.026519756392 5.456070754e-08 
0.00036299548728 4.456841397e-16 0.04463865419 0.99859155627 6.087168446e-12 0.00020335241618 1.3654549776e-15 2.6981917848e-17 2.3009105182e-05 
0.0065289877637 7.6228140835e-15 7.3561089671e-18 1.1851812862e-06 0.9053516064 1.5290464481e-08 0.6135405473 0.00029846525886 1.7685021693e-12 
1.126308418e-11 7.1330400715e-11 5.0055006501e-06 1.9226231425e-13 1.0031202315e-16 3.3449371524e-16 2.1569518615e-12 1.3208370494e-12 3.0620988091e-12 
3.1809686636e-17 5.3594408328e-12 0.7222512597 2.8651606236e-11 3.5864645003e-15 11.006952652 0.000128206508 2.9760388506e-08 3.5615959311e-08 
1.0098751631e-14 5.9288213421e-16 5.3632219169e-09 3.3819049427e-14 0.0003573148687 3.0281415275 1.4318024151e-06 3.7871300372e-14 5.2508525711 
0.32329886477 0.16498475729 0.019091312543 0.0005032128009 2.1513639884e-14 6.5268143836 1.6844378006e-08 4.2756274458 0.047669844854 
1.5525721806e-09 9.5199349328e-14 9.79518849e-11 0.082961810639 0.00038675787265 5.3839599888e-05 0.41376173942 0.009058716138 6.2745655828e-06 
4.3540973917e-08 1.7447702944 2.8378986905e-05 0.78354030614 3.0534563901e-12 1.0287396246e-06 0.0070304159854 0.029901414203 2.2985228778e-15 
6.9429436825e-05 0.00049304322192 3.9921562334e-16 0.0064449745099 3.0802094733e-18 1.6235822646e-13 3.8095155609e-15 6.1955833274e-07 0.015752704953 
5.7082369394e-07 4.9126247637e-05 0.00056014034832 2.0837815852e-15 0.00037232001824 4.4666630004e-13 4.4517138887e-18 1.4965100066e-08 0.038010493696 
3.136639186 3.1609032519e-13 3.7072360777e-12 2.0696597388 5.4912741646e-05 2.4116563135e-11 1.1954328603e-15 2.3363150644 0.0013996215135 
4.7908198452 9.3400387507e-15 2.7008954439e-18 0.0037245544091 9.6011531127e-16 60.220978882 5.570007617 7.395808751e-10 1.3154139533e-05 
2.8760345843e-16 5.1072558157e-15 3.0598082662e-06 1.254049037e-17 0.30818523838 6.2396087061 1.3701391141e-05 0.00069523736404 8.3926877749e-09 
0.074060224175 3.8146884923e-07 0.0067389045108 2.8811156832 2.6494910943e-09 4.4586339108e-14 1.1231339505e-05 2.8231156344e-08 6.2749835459 
1.4451185651e-14 2.6786999508 0.10564078762 1.3567884542e-07 0.0036570812794 9.660052825e-15 2.3053630744 1.3762544405e-17 1.8806448005 
5.0872098711 4.1839982737e-15 1.0981970908e-14 6.7259541807e-08 9.6393905024 2.3389133804e-13 7.7804164643 3.9557534855 2.5519057298e-16 
5.0986443979e-12 7.5204869196e-11 2.660476793e-15 6.0538838835e-10 0.015209519169 4.8949973768e-15 0.0013274373631 5.5040195784e-16 4.9764498877e-17 
1.3450824132e-10 1.6385653106e-15 2.0510554304e-14 0.91853317248 1.6436243501 1.3699296915e-05 13.240311291 0.0013192727213 2.0445977752e-12 
3.2069078458e-16 0.00010283048744 9.3950001954e-12 1.9527740509e-16 0.48738758673 5.9754584758e-08 1.6457258981e-06 1.7967810809e-15 0.021501803219 
0.027669580567 0.00070301226331 2.5585556306 3.2750512734 1.4471232386e-16 3.16519635e-15 1.2678446549e-11 0.64199154406 0.79812770912 
1.6303591412e-05 0.0031797499086 0.00025458101546 0.00017878626047 7.2830621167 2.2919953631e-11 0.0026978407437 0.25200633808 0.27762713071 
1.582281741e-06 3.5054736397 0.0001976825046 0.0064022624271 9.0851000276e-13 2.9049746806e-06 1.4051306492e-18 4.2991360742 0.047677270302 
0.19385248086 7.4652999393e-13 1.3064641751e-09 0.32107214833 1.0293780328e-13 0.00035602915576 0.40617444237 2.2883382867e-07 2.7827040627e-15 
0.014579840477 2.9399435887e-21 3.4891167536e-09 0.0078937390952 1.764031743e-05 8.7375733297e-16 0.0956573758 0.00025454125091 0.0023749043377 
2.8163574994 3.2150430416 7.3743278938 1.4868203063e-13 1.1734700937 6.1596164078e-07 2.6768623386e-06 1.6624584644e-09 9.8483240098e-18 
0.91367429336 4.6636358717e-13 1.1594381975e-11 5.239667212e-14 5.4037948125e-18 0.023918441001 0.14074860168 2.5952083964e-17 0.26889266275 
0.89165967485 0.0025306486798 0.00079727142172 1.0035216275e-15 1.4445168063e-18 0.024985208119 3.657681388e-06 1.1996120838e-18 0.057848370148 
8.9981484291e-10 5.1529898577e-05 0.012625004688 0.0018919877967 11.179742758 6.0598992235 3.4714431694e-06 2.8363857198e-12 0.022344159025 
0.00063142487811 0.095313931631 3.2934084901e-15 5.0951672308 14.607204994 0.19925215776 0.1015325978 5.9161481762e-11 3.2330084483e-13 
2.762520623e-15 1.1683152424 1.3548839233 0.0095012236534 0.0016978060073 1.1400567213e-14 0.035478274876 0.066506897968 7.0943269671e-15 
0.001389648409 0.00017584407789 0.0012313945112 0.028733865512 0.0003740209619 0.00061420402867 0.00010630117473 1.1755618533e-15 3.1271188444 
0.11845070065 0.72016049988 1.6320750088e-05 0.19122241133 6.431987539e-09 8.4428351646 1.6128203653e-12 1.3776695092e-07 0.067702471777 
0.023720092165 3.3408328972e-06 1.4684809724 9.6888104321e-15 3.1804962494e-13 4.87969542e-12 3.2949100163 7.482110441e-10 1.2296884537e-08 
5.0179804684e-07 1.1415348675e-06 1.7569104074e-07 2.6183805259e-07 5.1157718983e-09 1.5819294568e-10 8.2027356444e-12 9.8203632787e-05 4.847681892e-10 
3.9531167471e-13 4.7269580807e-07 1.9646679267e-06 2.4651975274e-14 1.5807243814e-06 4.0059150575e-13 0.00085454717419 0.00062488851238 39.84057867 
1.8232312643e-12 3.9404507801e-17 0.021687744894 0.0026410736131 4.293153346e-13 4.833372658e-14 14.831921544 0.66464451806 4.412179328e-05 
2.9824759387e-06 5.3323702069e-13 4.2500880893 5.9349979297e-15 0.00052346378029 1.3314236367e-09 1.3794409401e-14 4.4462979108 2.5586788073e-18 
2.4706391294 3.0115539704e-09 9.9658828925e-12 0.00054027680373 8.9592496002e-12 1.3560923985e-08 2.6947441716e-14 1.769346869e-14 3.3452818614e-17 
1.2499398895e-08 1.5572467342e-14 2.0633692626 2.7955957268e-07 2.1308162386 1.0396178653 1.9775433675e-17 4.0804297013e-16 3.1321804522e-14 
0.0010393217929 8.8246674698 4.4605981677e-16 1.0535969664e-05 4.3220531061e-08 1.1901349463e-06 1.0994656612 1.0721253252e-05 4.680085949e-14 