# vtk DataFile Version 4.2
vtk output
ASCII
DATASET UNSTRUCTURED_GRID
POINTS 11287 double
0 0 0 7 0 0 0 7 0 
7 7 0 1 1 0 2 1 0 
2 2 0 1 2 0 5 2 0 
5 1 0 6 1 0 6 2 0 
3 2 0 3 1 0 4 1 0 
4 2 0 5 3 0 6 3 0 
6 4 0 5 4 0 5 5 0 
4 5 0 4 4 0 3 4 0 
3 5 0 2 5 0 2 4 0 
1 4 0 1 3 0 2 3 0 
2 6 0 1 6 0 1 5 0 
6 5 0 6 6 0 5 6 0 
3 3 0 4 3 0 0.074468085106 0 0 
0.14893617021 0 0 0.22340425532 0 0 0.29787234043 0 0 
0.37234042553 0 0 0.44680851064 0 0 0.52127659574 0 0 
0.59574468085 0 0 0.67021276596 0 0 0.74468085106 0 0 
0.81914893617 0 0 0.89361702128 0 0 0.96808510638 0 0 
1.0425531915 0 0 1.1170212766 0 0 1.1914893617 0 0 
1.2659574468 0 0 1.3404255319 0 0 1.414893617 0 0 
1.4893617021 0 0 1.5638297872 0 0 1.6382978723 0 0 
1.7127659574 0 0 1.7872340426 0 0 1.8617021277 0 0 
1.9361702128 0 0 2.0106382979 0 0 2.085106383 0 0 
2.1595744681 0 0 2.2340425532 0 0 2.3085106383 0 0 
2.3829787234 0 0 2.4574468085 0 0 2.5319148936 0 0 
2.6063829787 0 0 2.6808510638 0 0 2.7553191489 0 0 
2.829787234 0 0 2.9042553191 0 0 2.9787234043 0 0 
3.0531914894 0 0 3.1276595745 0 0 3.2021276596 0 0 
3.2765957447 0 0 3.3510638298 0 0 3.4255319149 0 0 
3.5 0 0 3.5744680851 0 0 3.6489361702 0 0 
3.7234042553 0 0 3.7978723404 0 0 3.8723404255 0 0 
3.9468085106 0 0 4.0212765957 0 0 4.0957446809 0 0 
4.170212766 0 0 4.2446808511 0 0 4.3191489362 0 0 
4.3936170213 0 0 4.4680851064 0 0 4.5425531915 0 0 
4.6170212766 0 0 4.6914893617 0 0 4.7659574468 0 0 
4.8404255319 0 0 4.914893617 0 0 4.9893617021 0 0 
5.0638297872 0 0 5.1382978723 0 0 5.2127659574 0 0 
5.2872340426 0 0 5.3617021277 0 0 5.4361702128 0 0 
5.5106382979 0 0 5.585106383 0 0 5.6595744681 0 0 
5.7340425532 0 0 5.8085106383 0 0 5.8829787234 0 0 
5.9574468085 0 0 6.0319148936 0 0 6.1063829787 0 0 
6.1808510638 0 0 6.2553191489 0 0 6.329787234 0 0 
6.4042553191 0 0 6.4787234043 0 0 6.5531914894 0 0 
6.6276595745 0 0 6.7021276596 0 0 6.7765957447 0 0 
6.8510638298 0 0 6.9255319149 0 0 0 6.9255319149 0 
0 6.8510638298 0 0 6.7765957447 0 0 6.7021276596 0 
0 6.6276595745 0 0 6.5531914894 0 0 6.4787234043 0 
0 6.4042553191 0 0 6.329787234 0 0 6.2553191489 0 
0 6.1808510638 0 0 6.1063829787 0 0 6.0319148936 0 
0 5.9574468085 0 0 5.8829787234 0 0 5.8085106383 0 
0 5.7340425532 0 0 5.6595744681 0 0 5.585106383 0 
0 5.5106382979 0 0 5.4361702128 0 0 5.3617021277 0 
0 5.2872340426 0 0 5.2127659574 0 0 5.1382978723 0 
0 5.0638297872 0 0 4.9893617021 0 0 4.914893617 0 
0 4.8404255319 0 0 4.7659574468 0 0 4.6914893617 0 
0 4.6170212766 0 0 4.5425531915 0 0 4.4680851064 0 
0 4.3936170213 0 0 4.3191489362 0 0 4.2446808511 0 
0 4.170212766 0 0 4.0957446809 0 0 4.0212765957 0 
0 3.9468085106 0 0 3.8723404255 0 0 3.7978723404 0 
0 3.7234042553 0 0 3.6489361702 0 0 3.5744680851 0 
0 3.5 0 0 3.4255319149 0 0 3.3510638298 0 
0 3.2765957447 0 0 3.2021276596 0 0 3.1276595745 0 
0 3.0531914894 0 0 2.9787234043 0 0 2.9042553191 0 
0 2.829787234 0 0 2.7553191489 0 0 2.6808510638 0 
0 2.6063829787 0 0 2.5319148936 0 0 2.4574468085 0 
0 2.3829787234 0 0 2.3085106383 0 0 2.2340425532 0 
0 2.1595744681 0 0 2.085106383 0 0 2.0106382979 0 
0 1.9361702128 0 0 1.8617021277 0 0 1.7872340426 0 
0 1.7127659574 0 0 1.6382978723 0 0 1.5638297872 0 
0 1.4893617021 0 0 1.414893617 0 0 1.3404255319 0 
0 1.2659574468 0 0 1.1914893617 0 0 1.1170212766 0 
0 1.0425531915 0 0 0.96808510638 0 0 0.89361702128 0 
0 0.81914893617 0 0 0.74468085106 0 0 0.67021276596 0 
0 0.59574468085 0 0 0.52127659574 0 0 0.44680851064 0 
0 0.37234042553 0 0 0.29787234043 0 0 0.22340425532 0 
0 0.14893617021 0 0 0.074468085106 0 7 0.074468085106 0 
7 0.14893617021 0 7 0.22340425532 0 7 0.29787234043 0 
7 0.37234042553 0 7 0.44680851064 0 7 0.52127659574 0 
7 0.59574468085 0 7 0.67021276596 0 7 0.74468085106 0 
7 0.81914893617 0 7 0.89361702128 0 7 0.96808510638 0 
7 1.0425531915 0 7 1.1170212766 0 7 1.1914893617 0 
7 1.2659574468 0 7 1.3404255319 0 7 1.414893617 0 
7 1.4893617021 0 7 1.5638297872 0 7 1.6382978723 0 
7 1.7127659574 0 7 1.7872340426 0 7 1.8617021277 0 
7 1.9361702128 0 7 2.0106382979 0 7 2.085106383 0 
7 2.1595744681 0 7 2.2340425532 0 7 2.3085106383 0 
7 2.3829787234 0 7 2.4574468085 0 7 2.5319148936 0 
7 2.6063829787 0 7 2.6808510638 0 7 2.7553191489 0 
7 2.829787234 0 7 2.9042553191 0 7 2.9787234043 0 
7 3.0531914894 0 7 3.1276595745 0 7 3.2021276596 0 
7 3.2765957447 0 7 3.3510638298 0 7 3.4255319149 0 
7 3.5 0 7 3.5744680851 0 7 3.6489361702 0 
7 3.7234042553 0 7 3.7978723404 0 7 3.8723404255 0 
7 3.9468085106 0 7 4.0212765957 0 7 4.0957446809 0 
7 4.170212766 0 7 4.2446808511 0 7 4.3191489362 0 
7 4.3936170213 0 7 4.4680851064 0 7 4.5425531915 0 
7 4.6170212766 0 7 4.6914893617 0 7 4.7659574468 0 
7 4.8404255319 0 7 4.914893617 0 7 4.9893617021 0 
7 5.0638297872 0 7 5.1382978723 0 7 5.2127659574 0 
7 5.2872340426 0 7 5.3617021277 0 7 5.4361702128 0 
7 5.5106382979 0 7 5.585106383 0 7 5.6595744681 0 
7 5.7340425532 0 7 5.8085106383 0 7 5.8829787234 0 
7 5.9574468085 0 7 6.0319148936 0 7 6.1063829787 0 
7 6.1808510638 0 7 6.2553191489 0 7 6.329787234 0 
7 6.4042553191 0 7 6.4787234043 0 7 6.5531914894 0 
7 6.6276595745 0 7 6.7021276596 0 7 6.7765957447 0 
7 6.8510638298 0 7 6.9255319149 0 6.9255319149 7 0 
6.8510638298 7 0 6.7765957447 7 0 6.7021276596 7 0 
6.6276595745 7 0 6.5531914894 7 0 6.4787234043 7 0 
6.4042553191 7 0 6.329787234 7 0 6.2553191489 7 0 
6.1808510638 7 0 6.1063829787 7 0 6.0319148936 7 0 
5.9574468085 7 0 5.8829787234 7 0 5.8085106383 7 0 
5.7340425532 7 0 5.6595744681 7 0 5.585106383 7 0 
5.5106382979 7 0 5.4361702128 7 0 5.3617021277 7 0 
5.2872340426 7 0 5.2127659574 7 0 5.1382978723 7 0 
5.0638297872 7 0 4.9893617021 7 0 4.914893617 7 0 
4.8404255319 7 0 4.7659574468 7 0 4.6914893617 7 0 
4.6170212766 7 0 4.5425531915 7 0 4.4680851064 7 0 
4.3936170213 7 0 4.3191489362 7 0 4.2446808511 7 0 
4.170212766 7 0 4.0957446809 7 0 4.0212765957 7 0 
3.9468085106 7 0 3.8723404255 7 0 3.7978723404 7 0 
3.7234042553 7 0 3.6489361702 7 0 3.5744680851 7 0 
3.5 7 0 3.4255319149 7 0 3.3510638298 7 0 
3.2765957447 7 0 3.2021276596 7 0 3.1276595745 7 0 
3.0531914894 7 0 2.9787234043 7 0 2.9042553191 7 0 
2.829787234 7 0 2.7553191489 7 0 2.6808510638 7 0 
2.6063829787 7 0 2.5319148936 7 0 2.4574468085 7 0 
2.3829787234 7 0 2.3085106383 7 0 2.2340425532 7 0 
2.1595744681 7 0 2.085106383 7 0 2.0106382979 7 0 
1.9361702128 7 0 1.8617021277 7 0 1.7872340426 7 0 
1.7127659574 7 0 1.6382978723 7 0 1.5638297872 7 0 
1.4893617021 7 0 1.414893617 7 0 1.3404255319 7 0 
1.2659574468 7 0 1.1914893617 7 0 1.1170212766 7 0 
1.0425531915 7 0 0.96808510638 7 0 0.89361702128 7 0 
0.81914893617 7 0 0.74468085106 7 0 0.67021276596 7 0 
0.59574468085 7 0 0.52127659574 7 0 0.44680851064 7 0 
0.37234042553 7 0 0.29787234043 7 0 0.22340425532 7 0 
0.14893617021 7 0 0.074468085106 7 0 1.0714285714 1 0 
1.1428571429 1 0 1.2142857143 1 0 1.2857142857 1 0 
1.3571428571 1 0 1.4285714286 1 0 1.5 1 0 
1.5714285714 1 0 1.6428571429 1 0 1.7142857143 1 0 
1.7857142857 1 0 1.8571428571 1 0 1.9285714286 1 0 
2 1.0714285714 0 2 1.1428571429 0 2 1.2142857143 0 
2 1.2857142857 0 2 1.3571428571 0 2 1.4285714286 0 
2 1.5 0 2 1.5714285714 0 2 1.6428571429 0 
2 1.7142857143 0 2 1.7857142857 0 2 1.8571428571 0 
2 1.9285714286 0 1.9285714286 2 0 1.8571428571 2 0 
1.7857142857 2 0 1.7142857143 2 0 1.6428571429 2 0 
1.5714285714 2 0 1.5 2 0 1.4285714286 2 0 
1.3571428571 2 0 1.2857142857 2 0 1.2142857143 2 0 
1.1428571429 2 0 1.0714285714 2 0 1 1.9285714286 0 
1 1.8571428571 0 1 1.7857142857 0 1 1.7142857143 0 
1 1.6428571429 0 1 1.5714285714 0 1 1.5 0 
1 1.4285714286 0 1 1.3571428571 0 1 1.2857142857 0 
1 1.2142857143 0 1 1.1428571429 0 1 1.0714285714 0 
5 1.9285714286 0 5 1.8571428571 0 5 1.7857142857 0 
5 1.7142857143 0 5 1.6428571429 0 5 1.5714285714 0 
5 1.5 0 5 1.4285714286 0 5 1.3571428571 0 
5 1.2857142857 0 5 1.2142857143 0 5 1.1428571429 0 
5 1.0714285714 0 5.0714285714 1 0 5.1428571429 1 0 
5.2142857143 1 0 5.2857142857 1 0 5.3571428571 1 0 
5.4285714286 1 0 5.5 1 0 5.5714285714 1 0 
5.6428571429 1 0 5.7142857143 1 0 5.7857142857 1 0 
5.8571428571 1 0 5.9285714286 1 0 6 1.0714285714 0 
6 1.1428571429 0 6 1.2142857143 0 6 1.2857142857 0 
6 1.3571428571 0 6 1.4285714286 0 6 1.5 0 
6 1.5714285714 0 6 1.6428571429 0 6 1.7142857143 0 
6 1.7857142857 0 6 1.8571428571 0 6 1.9285714286 0 
5.9285714286 2 0 5.8571428571 2 0 5.7857142857 2 0 
5.7142857143 2 0 5.6428571429 2 0 5.5714285714 2 0 
5.5 2 0 5.4285714286 2 0 5.3571428571 2 0 
5.2857142857 2 0 5.2142857143 2 0 5.1428571429 2 0 
5.0714285714 2 0 2.0714285714 2 0 2.1428571429 2 0 
2.2142857143 2 0 2.2857142857 2 0 2.3571428571 2 0 
2.4285714286 2 0 2.5 2 0 2.5714285714 2 0 
2.6428571429 2 0 2.7142857143 2 0 2.7857142857 2 0 
2.8571428571 2 0 2.9285714286 2 0 3 1.9285714286 0 
3 1.8571428571 0 3 1.7857142857 0 3 1.7142857143 0 
3 1.6428571429 0 3 1.5714285714 0 3 1.5 0 
3 1.4285714286 0 3 1.3571428571 0 3 1.2857142857 0 
3 1.2142857143 0 3 1.1428571429 0 3 1.0714285714 0 
3.0714285714 1 0 3.1428571429 1 0 3.2142857143 1 0 
3.2857142857 1 0 3.3571428571 1 0 3.4285714286 1 0 
3.5 1 0 3.5714285714 1 0 3.6428571429 1 0 
3.7142857143 1 0 3.7857142857 1 0 3.8571428571 1 0 
3.9285714286 1 0 4 1.0714285714 0 4 1.1428571429 0 
4 1.2142857143 0 4 1.2857142857 0 4 1.3571428571 0 
4 1.4285714286 0 4 1.5 0 4 1.5714285714 0 
4 1.6428571429 0 4 1.7142857143 0 4 1.7857142857 0 
4 1.8571428571 0 4 1.9285714286 0 4.0714285714 2 0 
4.1428571429 2 0 4.2142857143 2 0 4.2857142857 2 0 
4.3571428571 2 0 4.4285714286 2 0 4.5 2 0 
4.5714285714 2 0 4.6428571429 2 0 4.7142857143 2 0 
4.7857142857 2 0 4.8571428571 2 0 4.9285714286 2 0 
5 2.0714285714 0 5 2.1428571429 0 5 2.2142857143 0 
5 2.2857142857 0 5 2.3571428571 0 5 2.4285714286 0 
5 2.5 0 5 2.5714285714 0 5 2.6428571429 0 
5 2.7142857143 0 5 2.7857142857 0 5 2.8571428571 0 
5 2.9285714286 0 5.0714285714 3 0 5.1428571429 3 0 
5.2142857143 3 0 5.2857142857 3 0 5.3571428571 3 0 
5.4285714286 3 0 5.5 3 0 5.5714285714 3 0 
5.6428571429 3 0 5.7142857143 3 0 5.7857142857 3 0 
[...]
CELL_DATA 22196
FIELD FieldData 1
flux 1 22196 double
3.1919471714e-05 8.9443862691e-05 1.7211202944e-05 2.1375862461e-06 1.2565773368e-08 4.6079037296e-07 4.5232085232e-05 8.9637839512e-06 2.87071519e-06 
2.3947726214e-05 3.3481192171e-05 8.9991901265e-08 6.7855017629e-05 1.5094162403e-08 0.00012906001603 7.0872711869e-06 6.3090072874e-05 5.0237122885e-05 
3.6747784372e-08 1.0966075359e-08 2.8005062477e-07 5.4188517491e-05 1.2883271643e-05 5.0869896326e-07 4.1687373195e-07 1.3870098556e-08 3.5689401143e-06 
2.0589228123e-06 6.1684625541e-07 3.4163142778e-08 3.5755410331e-05 5.7013045911e-08 1.6905074088e-06 4.9431678739e-06 1.0791465743e-06 1.1898117074e-08 
1.0122457654e-07 6.3329746094e-06 1.2620709183e-06 4.7786090378e-05 3.7177030124e-05 4.5547032159e-05 9.6396429965e-08 8.9644033172e-06 6.4388166126e-08 
4.4612917895e-05 6.0474376335e-05 8.484886433e-07 2.036486309e-08 3.9825103563e-08 5.2774344486e-08 4.8602384824e-08 3.8360002235e-07 4.9774776971e-07 
2.5276295893e-07 4.6321960241e-06 4.7510250375e-05 4.5294938013e-06 1.10328684e-07 1.0035320666e-06 3.5209043461e-08 6.8764022186e-08 4.1498059918e-06 
1.7832274401e-07 3.1478966282e-08 3.7413287296e-05 6.0556550596e-06 9.6982083546e-07 6.1419132892e-08 3.1758272258e-05 2.5145596909e-08 1.3801081483e-07 
2.4721956967e-05 2.5037331412e-05 7.5751665638e-06 1.1936621938e-05 4.3249288066e-05 1.1773415425e-05 3.9537588251e-05 7.82939478e-05 8.5895361724e-08 
1.1249191555e-06 2.5784532618e-08 6.5907398734e-05 1.3120495604e-07 1.8046650261e-05 2.1493997261e-07 1.9102827213e-06 4.6319904766e-08 1.0717399843e-05 
5.5680794303e-05 1.0404346534e-05 2.3901941619e-05 2.5923156198e-06 1.2805502073e-05 1.8398628311e-05 2.9596479095e-06 5.5147691359e-05 1.9667540599e-06 
2.7944048116e-06 1.6983918979e-06 1.3536184103e-06 4.5983348838e-06 3.0670097886e-06 2.0116180378e-06 4.3873309e-07 3.7175731642e-07 5.3679197678e-07 
9.3828394637e-07 8.8568935079e-07 6.0969993236e-07 1.5135780067e-07 4.8205060104e-07 1.2781062208e-07 8.3258386061e-07 2.7824234404e-05 2.7355755304e-05 
7.0969989005e-06 2.1081815327e-07 6.5224575222e-05 3.117844074e-07 1.1976911876e-06 4.4871937315e-05 0.00011186886767 1.4020570738e-05 1.4426669079e-05 
4.8976485312e-06 3.8651121646e-06 2.6467821791e-06 3.4163778549e-07 5.3920452444e-07 0.00015710415275 2.8479445837e-08 4.1528015502e-05 2.1621967207e-05 
1.9168423911e-06 6.1949077516e-06 1.0205271033e-05 7.576189048e-05 6.8599120723e-05 3.3668945963e-06 7.2292065507e-07 2.621900509e-07 1.4008618807e-06 
2.9737662208e-06 1.7795325261e-05 6.7692524833e-06 6.015519301e-07 4.7198395591e-06 5.1566049906e-05 9.6759735372e-08 2.1458531024e-08 3.945673608e-05 
7.1415634999e-05 0.00011186757349 7.0551065313e-06 3.2861228821e-06 5.2198069128e-07 9.1717445706e-07 9.7532989374e-06 1.0014019669e-07 9.6142926037e-06 
2.3025119109e-08 0.0001089624731 5.7429369869e-08 3.8083481794e-08 2.3656678953e-06 8.7135672623e-07 4.1666230758e-06 0.00011648707512 2.191343276e-05 
3.8635753339e-08 6.3256733882e-06 5.0015402697e-05 8.853289807e-06 3.1418483293e-07 1.8003649329e-05 4.7070391868e-06 1.0690815878e-06 6.2857394778e-07 
4.1659298201e-06 8.0518816384e-06 1.8095206123e-07 1.6979666708e-05 9.1867366757e-07 1.0206516415e-05 8.3225466837e-07 4.7420988736e-07 1.6066377197e-06 
9.8918376739e-07 1.8773116186e-07 1.2981983141e-06 2.2669736589e-07 6.5377969484e-06 8.08775272e-06 6.4313182289e-08 2.3377278943e-06 4.3942517503e-06 
1.2140565589e-06 2.2830474489e-05 3.1838764442e-05 3.349591518e-05 9.079398539e-06 1.6175862896e-06 2.9657377213e-06 2.8309186405e-06 1.2543330839e-05 
1.0366215257e-05 4.9166690264e-07 1.9702934102e-06 1.2937446632e-05 1.1500329022e-06 1.3976683533e-07 3.6200900556e-06 4.2278304245e-06 5.3760607996e-08 
3.3579207031e-07 1.1421840134e-07 0.00017928546742 0.00012558901125 1.0524457615e-07 7.0367392985e-06 1.719690265e-05 1.8608237582e-05 6.1453648489e-05 
4.9041937687e-05 0.0001026493048 0.00015141549898 1.8186632985e-08 2.2913650639e-06 6.4197797376e-06 1.460990203e-07 7.7025222265e-05 2.8931378712e-06 
0.00015064034395 0.00016324776315 0.0001706661094 7.0148638239e-07 0.00011335290842 1.4955450889e-05 1.3175807948e-06 1.8762066714e-06 1.3083096502e-05 
0.00016285229972 0.00013592053653 1.3780134916e-06 1.024645221e-05 7.2959008519e-05 2.9799765532e-08 0.00015722058414 0.00010258914393 1.9788202423e-05 
1.1016282389e-05 5.2032446064e-06 6.5441667321e-06 2.95473726e-05 3.3423740974e-07 7.5167524771e-08 2.8023067482e-05 9.2409298091e-07 1.4358912904e-06 
2.0372717782e-07 1.5988845601e-05 1.5070618107e-06 4.4188136091e-06 6.2027014624e-06 4.2878390099e-06 2.6556087995e-07 5.0948352448e-06 7.7177964355e-07 
4.4494230708e-07 1.3397786388e-06 4.463638973e-06 1.092634416e-05 2.8575737423e-06 2.315181524e-07 6.7111180143e-06 8.1093798729e-07 1.9591167949e-06 
1.0165363883e-06 7.4430256328e-07 6.2427366131e-07 2.0745921782e-06 7.463481003e-06 6.6693357358e-08 8.3113951715e-08 1.8630577889e-06 1.3043376939e-06 
0.00011844430716 1.2177699981e-05 1.1823267761e-05 1.8067177263e-07 2.9425033748e-08 4.2747687015e-06 5.1466280464e-08 7.1588380325e-05 6.3883031771e-05 
9.1712430271e-05 5.3014463843e-07 2.4218261835e-05 2.9451510395e-07 2.9174679543e-06 1.1877332799e-06 2.0833400588e-08 2.1232068713e-07 1.7878919694e-08 
2.1450435321e-06 0.00010990464131 1.61159842e-05 4.8345890347e-05 7.5890617624e-06 6.5307356488e-07 1.8812732518e-05 2.6192488712e-05 1.3647728916e-08 
1.7476879535e-06 2.0961360142e-08 2.8830748337e-07 2.7579004062e-07 3.6030877524e-08 4.4384811698e-06 4.1922880797e-07 3.2813008437e-08 1.3967824031e-05 
1.9881122537e-05 7.7809212838e-06 9.8576658663e-05 0.00017469196701 7.193892128e-06 8.544684171e-05 3.829812488e-08 2.0777661339e-06 2.5101246666e-07 
1.7830927574e-05 7.7342342635e-07 3.1991273736e-05 4.389549189e-05 1.0518464206e-05 5.077569126e-05 1.7666588709e-05 4.6678334143e-06 2.3472731846e-07 
3.0756697825e-06 1.6250488535e-05 2.8359572963e-05 7.0127299456e-08 3.7181086152e-07 5.6739538709e-08 2.3514116864e-07 3.0679330218e-07 1.212250458e-05 
6.3144951732e-06 4.469263042e-07 3.0059456664e-06 8.8788307517e-06 3.2350299681e-06 5.3076153767e-05 3.736800027e-05 0.00014674838011 1.0988616773e-07 
1.9143911187e-05 5.0162813389e-07 9.8130320312e-06 1.5805281381e-07 8.9059291608e-06 1.3505627016e-05 1.0358408397e-07 1.3215611823e-05 2.5976340964e-05 
5.7919733218e-05 3.6532662526e-05 1.8185456331e-05 2.0972300402e-05 3.0653393782e-05 3.5238445072e-05 2.9667198703e-05 2.632324029e-05 3.7452116885e-05 
0.00019288712446 0.00011587299794 0.00012604801136 4.6270150686e-06 6.8368264609e-08 0.00010324230448 5.0924584181e-05 0.00014207425957 1.7444876751e-08 
5.4573451489e-05 0.00013364255453 1.39549664e-07 9.7347017524e-08 2.1224227888e-05 0.00016435585532 1.645015019e-05 5.1239355434e-05 1.8253303845e-06 
2.6731282283e-05 0.00012735835662 2.3271756493e-05 2.2369576302e-08 9.2150153966e-07 2.6936743182e-05 0.00010850035815 7.1436987617e-05 1.9507016642e-08 
3.5795633626e-05 1.4907340155e-07 2.3403408628e-07 8.3160066196e-05 0.00010750278072 1.4253110132e-08 3.2437586433e-06 7.7176527083e-05 7.7431551254e-05 
7.9950347885e-08 1.4942461533e-07 2.0160781389e-05 2.0693875078e-07 5.9056447973e-05 0.00011325939486 0.00014982776305 0.00014266148686 0.00010790149624 
0.00011843149439 0.00011869243861 1.4476686247e-08 1.4563555062e-08 2.2140120043e-06 8.4633658142e-05 3.5413076181e-05 2.4787374235e-05 5.7127499597e-07 
1.582716194e-07 0.00018260610636 1.9101997958e-08 8.9814311731e-05 4.7565277466e-06 0.00011265815613 1.3396768532e-07 1.2486540064e-05 0.00013536550626 
5.9168848749e-05 8.5621627479e-05 6.9248806016e-05 0.00010743398574 1.3950761871e-08 8.4139018799e-05 6.6806532295e-05 1.4374391415e-08 0.00011507457056 
8.2049499404e-05 3.6926881643e-05 1.0902837737e-08 7.4057758093e-05 7.5628943645e-05 7.8220467918e-05 2.9787361537e-05 9.5569459724e-05 6.8243491131e-05 
5.6084106838e-05 0.015684081811 0.024263963325 9.453185282e-06 0.034887595335 6.8755148616e-06 3.0102158812e-05 0.020498171804 5.6347116026e-06 
0.015822873419 0.0149998341 2.1280634968e-05 0.049621678698 0.025032674482 0.00077204042764 0.014899056338 4.4610370287e-05 7.3591972113e-06 
0.022616072781 0.0023223075121 5.136904222e-05 0.00021273055417 0.00010344887849 0.00035780011256 0.00031717101636 0.00049383730848 0.0071385113624 
0.0031201797643 7.4499964841e-06 0.015325387426 1.218355276e-05 0.00029667703793 0.015761173693 1.2126174966e-05 5.7040375837e-06 6.3076126633e-05 
0.00057295847945 0.00044328052821 7.9304401505e-06 0.016828735079 4.7093876258e-05 0.016418189473 0.00017493245867 0.00011014806675 0.00047100500305 
0.00038430690714 0.009466739436 0.010739445499 8.1337193958e-05 0.00013621313832 0.0001570414423 0.00023015331281 0.0047231314073 0.0045618206334 
0.0015832022623 0.013279123198 0.00039325232814 0.00029345079697 9.2443665281e-06 0.022867576805 0.0016045796558 0.0011304159213 6.3293347489e-06 
0.013962167298 1.4502338264e-05 3.3754549858e-05 0.0011207998947 0.011032876584 0.011363204279 0.0004378480344 0.00067494474131 0.016750253757 
0.0011631696427 0.0007509975198 0.024317116156 0.00082665427676 7.4990287971e-06 0.0046206839402 0.0062535230108 0.0022536369312 0.0011136410921 
0.0033872242761 0.0036159704233 0.0072690799738 0.00083772345446 0.0008022748317 0.0016586612205 0.00038607790832 0.00024198539094 0.00066017323724 
0.0051906956463 0.00025783210799 0.00072728256665 0.0024652059032 0.00044128197746 0.0034677294163 0.0030445492021 0.0011500496874 7.2342330643e-05 
5.3767861099e-05 0.0033860959394 0.00047219943992 0.00084095253295 5.004305858e-05 0.0050426227903 2.5538439703e-05 0.0002877180314 0.00036409203811 
0.0003235227614 0.00059608592218 0.00041308525177 0.00016231871657 3.634384606e-05 3.5863162012e-05 4.9682095973e-05 0.00010881668819 0.0011966264374 
2.6657836322e-05 0.00074157735303 0.00010779541073 0.0049118934157 0.00041216282386 0.00084244030484 8.7414114065e-05 3.4977032651e-05 0.0012220686152 
3.0675530162e-05 0.0047887039365 0.002363712019 8.6010276104e-05 6.6424570931e-06 0.00028586535927 2.5411205854e-05 2.737974465e-05 0.011173913305 
0.0032393888658 0.0049896513484 0.0017375550243 5.1773504591e-05 0.0025142795238 0.005303471486 0.0033466324466 0.00023544286752 0.0067550780401 
0.0017286663817 2.9814801947e-05 0.0011883655419 0.00059184800986 0.0044791993478 0.00016120366934 0.00011544581684 0.0070817502937 0.0035640725723 
9.4459721736e-05 3.6303251122e-05 0.0075687828827 5.7686157165e-05 5.9894421041e-05 5.819167677e-05 0.0036359561169 3.6505101102e-05 8.5524024259e-06 
0.010236337574 0.00014307497197 7.2337847349e-06 2.5424655572e-05 7.4930690879e-05 0.0070705583632 0.00014036228562 3.877497188e-05 7.6502529362e-05 
0.00014072575094 5.7692658943e-05 0.00023590487213 0.0035915449682 1.9070715237e-05 0.00027943275646 0.0035782581565 1.8483075001e-05 0.00027713040451 
5.0604117703e-05 1.8413805367e-05 0.0077140983924 0.00058396272317 7.1459516814e-05 1.3455834641e-05 3.2278110954e-05 5.221437611e-05 0.0002825728205 
0.00057965373788 1.9244506201e-05 0.047281803749 0.0002046127883 0.00010240334614 0.00020895012757 0.042235340033 0.0007976536819 3.9996956662e-05 
0.00010850326517 2.6688248384e-05 5.1861784653e-05 0.00021011364658 0.0023180527088 0.0052165602105 5.567140451e-05 0.00040828962058 0.0017137470976 
0.001169345162 0.00015881230257 0.007633289055 0.00015891756088 0.00041533201752 0.00057388734036 0.00049939020142 0.00073423652798 8.4799419657e-05 
0.00083772573511 0.006508112451 0.0011404844798 8.6153562688e-05 0.0024180415994 0.0050865685556 0.0011648342096 0.0011745123241 4.820943973e-06 
0.0525819749 1.3209873666e-05 0.0024146764645 0.0025367721342 5.6708510547e-05 0.00019854817812 0.0017214376282 0.0017364534859 4.8757966202e-05 
0.0019377137251 1.3319357776e-05 6.964927918e-06 0.00027355535448 0.030699853338 0.0077523939276 0.053364992889 0.00014214579021 0.00040046367636 
0.0024806909334 0.046149251706 0.034596589124 0.00043884981976 0.0022975658068 3.7487637771e-05 0.00041072062132 9.5936859359e-06 1.8343382939e-05 
0.045243208115 0.00028566088514 0.0017122761975 0.00041615032617 1.8710839513e-05 0.0001021132961 0.00058684808203 0.00014410824018 0.00056557149028 
0.0076451242617 0.00021694331994 0.0036148643425 7.4955131781e-05 0.00083945028786 5.8176394546e-05 0.00020442539555 0.0035824478845 0.0046342586685 
5.6985320774e-06 7.1841938784e-05 3.604171143e-05 0.0070528808996 5.6012326699e-06 0.00016874562831 0.00029448527212 0.00083141532862 0.00020188750777 
0.010730460018 0.00028566124982 0.00014020535463 0.015126489902 1.0385745637e-05 2.0876503438e-05 9.2682368655e-06 0.000101981577 7.0698789853e-05 
0.00019656561542 3.3412763221e-05 0.00010620548825 0.0015825712632 0.0070460338729 0.00081451922916 0.001619703952 1.2812793735e-05 0.00020354835529 
0.00013939008029 0.00029286589286 0.00015495044594 0.00056453788732 1.4540922396e-05 0.00057223477877 0.0011697113958 0.0001075083864 0.00025221879918 
0.0012019566542 0.0071430942461 7.4280647292e-05 0.00017903429594 0.00057236031707 0.0036412363365 0.0012583936814 0.00080216474397 1.2587350875e-05 
0.0012116046651 0.00083677879403 0.00014482977532 7.497910367e-05 3.5606790386e-05 9.9487926345e-06 0.0001126466513 0.00039558677678 6.8749616398e-05 
0.00467496914 1.0753471519e-05 0.0099795674439 0.0016722570165 0.00017285616387 0.00010265886891 3.9210921487e-05 0.00020288032978 0.00014692975237 
0.0002338757796 0.001640624681 3.9460562365e-05 0.00040031379957 8.5883255928e-06 0.0023992578558 0.00015592001513 5.231668478e-05 5.6870226854e-05 
0.00020560396004 0.0023059307235 0.0024148422726 0.00024064462317 0.00014746199041 8.2419139352e-05 0.00013442565331 0.0076549107526 3.8902613844e-05 
7.0100229049e-05 2.7218057864e-05 0.00016309014011 0.0053541309361 0.00029717001842 0.00013953071959 3.9358626944e-05 0.0050805688543 9.9240351811e-05 
2.1007845891e-05 0.00030050903757 9.8408965227e-05 0.0015327734638 9.1089687794e-05 3.1207151819e-05 1.8600353101e-05 2.214897865e-05 1.5549859761e-05 
0.0022263999094 0.0012874238925 0.0023482286563 0.015256257371 0.0012431085174 9.093635258e-06 0.0033569421264 0.0019829029488 0.050670093889 
0.0096927787265 0.043323313244 3.7265867896e-05 0.015088882795 0.00014198286477 0.036735635487 0.020633578186 1.2141353708e-05 5.5577320418e-06 
1.4697171421e-05 2.2862219616e-05 0.00056217774871 0.00085191059165 0.037036828504 0.010526919638 0.02250851957 1.5334141009e-05 4.9170663951e-06 
0.00011115549508 0.030653010013 2.3288012967e-05 0.0092657298177 0.016041769872 9.3992838369e-06 0.026006081823 0.038508715373 0.010389807738 
2.5171731812e-05 0.034066811799 0.033018069697 0.011291708654 1.2672618305e-05 1.4372191764e-05 6.1335218552e-06 0.025293022411 0.00012336802289 
0.041388973783 0.030249872124 0.030199104357 8.7777151408e-05 0.041496037248 8.6784547042e-05 0.00012140864631 6.3820358866e-06 2.1213968889e-05 
0.036218987305 0.011125403715 5.1750969082e-06 2.9138238958e-05 2.0113527624e-05 2.4868005696e-05 1.1059813181e-05 0.055071090202 0.0099548569452 
2.0158236908e-05 0.03668289882 0.049343610786 2.1746880369e-05 2.2435966555e-05 0.054595783307 0.010667075076 1.3796048113e-05 0.025481958401 
1.5358734034e-05 5.1863185932e-05 0.031158142196 0.020443138482 0.00010149924866 1.0179112369e-05 0.030456804389 5.4028432068e-05 0.00010027061493 
0.020569120414 0.029768607014 1.4752419829e-05 1.9006638514e-05 0.014857833921 7.2875020965e-06 6.1151873417e-05 0.02224053983 6.3978081925e-05 
0.02267901259 1.8761690802e-05 0.020699792942 9.0362741256e-06 7.7042582341e-05 9.1956452158e-05 4.3614475975e-05 5.1162780502e-06 2.1931571169e-08 
1.0366247415e-06 8.7962433994e-05 9.0961596944e-06 6.9876463756e-06 2.4246107923e-05 3.3919131697e-05 1.9521731039e-07 6.8741058184e-05 2.7362499236e-08 
0.0001329189681 7.1866697203e-06 6.5044808268e-05 5.0843969968e-05 7.3672191267e-08 1.6707047298e-08 6.33564776e-07 8.1682771948e-05 5.0750157519e-07 
1.3072657528e-05 7.1647356686e-08 3.6336545131e-06 2.0938113202e-06 1.723100492e-06 1.8184616914e-08 1.4169870823e-06 4.8476859074e-05 5.9541737859e-08 
5.0148218285e-06 2.5211332261e-06 1.5496722272e-08 3.2072302698e-07 5.1207329974e-07 6.428280145e-06 1.1459967391e-07 3.0761847582e-06 4.8472040549e-05 
3.8842537641e-07 4.6013543883e-05 4.3121323834e-07 0.00011044173461 1.9680341301e-07 2.2474040788e-05 5.2849024203e-07 4.5211105009e-05 6.1264028391e-05 
2.3487069766e-08 4.263629386e-08 1.8213730624e-07 1.0527176678e-07 1.0179757237e-06 8.5960662265e-07 4.7027771116e-06 4.6070046022e-06 0.00011015328283 
2.299482781e-07 3.7820752291e-08 7.2261407768e-08 4.2075716898e-06 3.8109226248e-05 5.7094274222e-08 5.1392862246e-08 1.5440649048e-05 2.3054752867e-06 
1.2508487984e-07 3.2206170016e-05 4.9515220685e-08 3.0058801762e-07 3.0862269093e-05 2.9378174491e-05 7.673439582e-06 3.0114504412e-05 2.3628768731e-07 
4.3854298933e-05 1.1963507775e-05 4.2303668331e-05 7.9244261167e-05 6.6773711358e-05 2.9676232502e-08 1.4583069908e-07 1.8422732348e-05 1.0853313863e-05 
7.4461862673e-05 1.0592640318e-05 2.4398075975e-05 1.2963142642e-05 1.8613594272e-05 5.5835888654e-05 2.3318051274e-05 7.0483372969e-06 4.7284510013e-06 
3.1979123406e-06 2.3011942894e-05 3.3909682599e-05 1.0444957506e-05 2.1448748053e-06 1.5579348137e-05 1.0329030669e-06 1.4690514057e-06 7.1791064257e-07 
6.3879247557e-07 4.3917190502e-07 0.00024119673563 4.5936394167e-08 6.9469668328e-05 6.6154309786e-08 1.4631200787e-06 5.3094318654e-07 9.076341563e-07 
3.3451391296e-07 0.00026769302311 4.8177074293e-07 0.00010862431454 3.426176931e-05 0.00016975074213 2.3066013219e-05 0.00027389663212 5.2397684973e-05 
3.5721971392e-06 0.00017643273279 0.00011592301248 1.5172818882e-05 0.00037918651399 4.5983818406e-08 2.5852617704e-05 4.444617744e-07 3.9797895127e-08 
3.5738719138e-07 2.1726207135e-06 7.4337848705e-08 1.0551620749e-05 1.611036932e-05 1.1746791486e-05 0.00025684265756 2.0243895807e-08 1.1414648912e-05 
7.4323369903e-05 1.582671333e-05 3.3758122512e-06 2.4058808505e-06 7.7752305483e-05 1.9063087023e-06 3.1466414362e-06 1.1028856533e-05 1.9383143094e-06 
7.801606097e-06 2.0014400849e-07 6.5350187056e-06 3.2222977328e-05 3.461628625e-05 1.1080841222e-05 7.9758516956e-07 2.6159691961e-08 9.3256729561e-07 
2.2767812925e-06 3.7931828754e-07 2.1120517374e-06 4.7707516421e-05 7.7165676048e-05 1.8261232318e-05 5.9953471236e-06 1.1215085028e-06 3.4986898894e-06 
1.5609453888e-05 1.9964946964e-05 3.4950714459e-05 3.1217602529e-07 2.0604947386e-06 1.6959345495e-05 5.7253974258e-06 3.5568238788e-07 0.00016230387451 
1.5933254715e-07 1.3102688529e-06 3.3978346826e-05 4.4882911188e-06 0.00020993225548 1.0911007089e-06 0.00027172348357 1.2304004775e-07 1.2844867206e-07 
0.00012480108733 2.3824365572e-06 1.5559539991e-06 5.0657130386e-07 5.1776715197e-05 1.8557315327e-05 2.9644953759e-06 1.5812359389e-07 4.9412804936e-05 
3.3371191096e-08 0.00016081241848 7.3134869535e-06 6.2459350198e-07 1.0532942873e-05 7.3173405238e-06 2.4688798116e-05 4.5555531021e-06 1.046814432e-05 
2.3249274036e-06 7.8475391134e-05 7.1111988686e-06 1.3504156127e-06 8.3107190274e-07 0.00010880574975 1.0368795573e-05 2.6315119594e-06 2.3260877408e-05 
9.9255581647e-07 3.3554001467e-06 3.9431112343e-08 1.8287669224e-07 8.7753346848e-06 1.240425449e-07 3.4304426371e-05 5.020533486e-05 0.00034648451021 
1.192093532e-07 0.00032525917606 0.00022086361837 0.00039569492365 0.00039901738631 8.4813843626e-07 8.2379198161e-06 1.6340869064e-05 1.7290966341e-05 
2.2999731552e-05 0.0003601822173 5.0636592815e-05 6.2091804445e-08 2.3588034115e-05 3.0012656988e-06 2.007371711e-05 5.7200379703e-08 3.3289793239e-08 
2.5742113358e-05 4.8645392788e-06 2.7368082114e-05 1.373265574e-07 1.0169332242e-06 5.0207727915e-06 7.2603019732e-06 7.66334066e-08 7.2354259622e-06 
2.2898091133e-05 1.9307694492e-06 0.00011818446377 1.1845468103e-06 7.386830821e-07 4.0801631675e-06 2.858143764e-08 0.0003063148398 3.2026631403e-08 