# vtk DataFile Version 5.1
vtk output
ASCII
DATASET UNSTRUCTURED_GRID
POINTS 565 double
0 0 0 7 0 0 0 7 0 
7 7 0 1 1 0 2 1 0 
2 2 0 1 2 0 5 2 0 
5 1 0 6 1 0 6 2 0 
3 2 0 3 1 0 4 1 0 
4 2 0 5 3 0 6 3 0 
6 4 0 5 4 0 5 5 0 
4 5 0 4 4 0 3 4 0 
3 5 0 2 5 0 2 4 0 
1 4 0 1 3 0 2 3 0 
2 6 0 1 6 0 1 5 0 
6 5 0 6 6 0 5 6 0 
3 3 0 4 3 0 0.38888888889 0 0 
0.77777777778 0 0 1.1666666667 0 0 1.5555555556 0 0 
1.9444444444 0 0 2.3333333333 0 0 2.7222222222 0 0 
3.1111111111 0 0 3.5 0 0 3.8888888889 0 0 
4.2777777778 0 0 4.6666666667 0 0 5.0555555556 0 0 
5.4444444444 0 0 5.8333333333 0 0 6.2222222222 0 0 
6.6111111111 0 0 0 6.6111111111 0 0 6.2222222222 0 
0 5.8333333333 0 0 5.4444444444 0 0 5.0555555556 0 
0 4.6666666667 0 0 4.2777777778 0 0 3.8888888889 0 
0 3.5 0 0 3.1111111111 0 0 2.7222222222 0 
0 2.3333333333 0 0 1.9444444444 0 0 1.5555555556 0 
0 1.1666666667 0 0 0.77777777778 0 0 0.38888888889 0 
7 0.38888888889 0 7 0.77777777778 0 7 1.1666666667 0 
7 1.5555555556 0 7 1.9444444444 0 7 2.3333333333 0 
7 2.7222222222 0 7 3.1111111111 0 7 3.5 0 
7 3.8888888889 0 7 4.2777777778 0 7 4.6666666667 0 
7 5.0555555556 0 7 5.4444444444 0 7 5.8333333333 0 
7 6.2222222222 0 7 6.6111111111 0 6.6111111111 7 0 
6.2222222222 7 0 5.8333333333 7 0 5.4444444444 7 0 
5.0555555556 7 0 4.6666666667 7 0 4.2777777778 7 0 
3.8888888889 7 0 3.5 7 0 3.1111111111 7 0 
2.7222222222 7 0 2.3333333333 7 0 1.9444444444 7 0 
1.5555555556 7 0 1.1666666667 7 0 0.77777777778 7 0 
0.38888888889 7 0 1.3333333333 1 0 1.6666666667 1 0 
2 1.3333333333 0 2 1.6666666667 0 1.6666666667 2 0 
1.3333333333 2 0 1 1.6666666667 0 1 1.3333333333 0 
5 1.6666666667 0 5 1.3333333333 0 5.3333333333 1 0 
5.6666666667 1 0 6 1.3333333333 0 6 1.6666666667 0 
5.6666666667 2 0 5.3333333333 2 0 2.3333333333 2 0 
2.6666666667 2 0 3 1.6666666667 0 3 1.3333333333 0 
3.3333333333 1 0 3.6666666667 1 0 4 1.3333333333 0 
4 1.6666666667 0 4.3333333333 2 0 4.6666666667 2 0 
5 2.3333333333 0 5 2.6666666667 0 5.3333333333 3 0 
5.6666666667 3 0 6 3.3333333333 0 6 3.6666666667 0 
5.6666666667 4 0 5.3333333333 4 0 5 4.3333333333 0 
5 4.6666666667 0 4.6666666667 5 0 4.3333333333 5 0 
4 4.6666666667 0 4 4.3333333333 0 3.6666666667 4 0 
3.3333333333 4 0 3 4.3333333333 0 3 4.6666666667 0 
2.6666666667 5 0 2.3333333333 5 0 2 4.6666666667 0 
2 4.3333333333 0 1.6666666667 4 0 1.3333333333 4 0 
1 3.6666666667 0 1 3.3333333333 0 1.3333333333 3 0 
1.6666666667 3 0 2 2.6666666667 0 2 2.3333333333 0 
2 5.3333333333 0 2 5.6666666667 0 1.6666666667 6 0 
1.3333333333 6 0 1 5.6666666667 0 1 5.3333333333 0 
1.3333333333 5 0 1.6666666667 5 0 5.3333333333 5 0 
5.6666666667 5 0 6 5.3333333333 0 6 5.6666666667 0 
5.6666666667 6 0 5.3333333333 6 0 5 5.6666666667 0 
5 5.3333333333 0 3 2.3333333333 0 3 2.6666666667 0 
3.3333333333 3 0 3.6666666667 3 0 4 2.6666666667 0 
4 2.3333333333 0 3.6666666667 2 0 3.3333333333 2 0 
2 3.3333333333 0 2 3.6666666667 0 2.3333333333 4 0 
2.6666666667 4 0 3 3.6666666667 0 3 3.3333333333 0 
2.6666666667 3 0 2.3333333333 3 0 4 3.3333333333 0 
4 3.6666666667 0 4.3333333333 4 0 4.6666666667 4 0 
5 3.6666666667 0 5 3.3333333333 0 4.6666666667 3 0 
4.3333333333 3 0 1.2951917063 1.5 0 1.7050506247 1.5 0 
1.5000403885 1.2474399183 0 1.5000403885 1.7525600817 0 1.7576802451 1.7576802451 0 
1.2423197549 1.2423197549 0 1.7576802451 1.2423197549 0 1.2423197549 1.7576802451 0 
1.5 3.7048082937 0 1.5 3.2949493753 0 1.2474399183 3.4999596115 0 
1.7525600817 3.4999596115 0 1.2423197549 3.7576802451 0 1.7576802451 3.2423197549 0 
1.7576802451 3.7576802451 0 1.2423197549 3.2423197549 0 1.7048082937 5.5 0 
1.2949493753 5.5 0 1.4999596115 5.2474399183 0 1.4999596115 5.7525600817 0 
1.2423197549 5.2423197549 0 1.7576802451 5.7576802451 0 1.7576802451 5.2423197549 0 
1.2423197549 5.7576802451 0 2.5 2.297798335 0 2.5 2.7026766338 0 
2.2474399183 2.5000791615 0 2.7525600817 2.5000791615 0 2.2423197549 2.7576802451 0 
2.7576802451 2.7576802451 0 2.2423197549 2.2423197549 0 2.7576802451 2.2423197549 0 
2.5 4.6985523849 0 2.5 4.2971333787 0 2.2474399183 4.4992809606 0 
2.7525600817 4.4992809606 0 2.7576802451 4.2423197549 0 2.2423197549 4.7576802451 0 
2.7576802451 4.7576802451 0 2.2423197549 4.2423197549 0 3.5 1.7048082937 0 
3.5 1.2949493753 0 3.2474399183 1.4999596115 0 3.7525600817 1.4999596115 0 
3.2423197549 1.2423197549 0 3.2423197549 1.7576802451 0 3.7576802451 1.2423197549 0 
3.7576802451 1.7576802451 0 3.5 3.2951917063 0 3.5 3.7050506247 0 
3.2474399183 3.5000403885 0 3.7525600817 3.5000403885 0 3.2423197549 3.2423197549 0 
3.7576802451 3.7576802451 0 3.2423197549 3.7576802451 0 3.7576802451 3.2423197549 0 
4.5 2.2951917063 0 4.5 2.7050506247 0 4.2474399183 2.5000403885 0 
4.7525600817 2.5000403885 0 4.7576802451 2.2423197549 0 4.2423197549 2.2423197549 0 
4.7576802451 2.7576802451 0 4.2423197549 2.7576802451 0 4.6985523849 4.5 0 
4.2971333787 4.5 0 4.4992809606 4.7525600817 0 4.4992809606 4.2474399183 0 
4.7576802451 4.7576802451 0 4.2423197549 4.7576802451 0 4.7576802451 4.2423197549 0 
4.2423197549 4.2423197549 0 5.2951917063 1.5 0 5.7050506247 1.5 0 
5.5000403885 1.2474399183 0 5.5000403885 1.7525600817 0 5.2423197549 1.7576802451 0 
5.7576802451 1.2423197549 0 5.2423197549 1.2423197549 0 5.7576802451 1.7576802451 0 
5.5 3.2951917063 0 5.5 3.7050506247 0 5.7525600817 3.5000403885 0 
5.2474399183 3.5000403885 0 5.7576802451 3.2423197549 0 5.2423197549 3.7576802451 0 
5.7576802451 3.7576802451 0 5.2423197549 3.2423197549 0 5.6985523849 5.5 0 
5.2971333787 5.5 0 5.4992809606 5.2474399183 0 5.4992809606 5.7525600817 0 
5.2423197549 5.2423197549 0 5.7576802451 5.2423197549 0 5.7576802451 5.7576802451 0 
5.2423197549 5.7576802451 0 3.7485855544 6.6942501976 0 2.2872656985 5.8378913721 0 
4.7119339728 5.8373697827 0 2.8759754619 6.5951459244 0 2.8162186717 5.3084308736 0 
3.186129153 5.2921568433 0 2.9979032054 5.5850721589 0 3.3402908331 5.6008010525 0 
4.1834772538 5.3076746294 0 4.7107049802 6.1677403394 0 4.4211946596 6.0016838939 0 
0.27665997492 2.5838218441 0 6.7053237048 2.42793991 0 0.29467629521 4.57206009 0 
4.4161781559 0.27665997492 0 6.663212343 4.4722222222 0 2.42793991 0.29467629521 0 
2.2918240758 6.1960938346 0 3.1734987121 5.8836777691 0 3.5136330362 5.8882723168 0 
6.6167962299 6.3741865029 0 6.3741865029 0.38320377014 0 0.38357251857 6.3760800284 0 
0.38320377014 0.6258134971 0 5.5 4.7113248654 0 2.5 1.6872666359 0 
5.8514999722 2.3378951476 0 3.6772759043 4.8414452564 0 4.3378951476 1.1485000278 0 
1.1485000278 4.6621048524 0 1.1485000278 2.6621048524 0 2.3378951476 1.1485000278 0 
5.1103344757 6.2741611014 0 0.71132486541 5.1666666667 0 6.2886751346 1.8333333333 0 
1.8333333333 0.71132486541 0 1.8899895413 6.2784546756 0 5.1666666667 0.71132486541 0 
6.2886751346 5.1666666667 0 0.71132486541 1.8333333333 0 3.8333333333 0.71132486541 0 
6.2886751346 3.8333333333 0 0.71132486541 3.1666666667 0 6.2939163714 3.1693263045 0 
3.1693263045 0.70608362863 0 0.70608362863 3.8306736955 0 6.3007298331 5.8302758913 0 
5.8302758913 0.69927016685 0 0.68791714935 5.8284678454 0 0.69927016685 1.1697241087 0 
1.1703128001 0.69343635082 0 1.1703128001 6.3065636492 0 5.8296871999 6.3065636492 0 
6.3065636492 1.1703128001 0 4.4127643558 6.3484393703 0 4.0729408297 6.1740044985 0 
5.3127333641 2.5 0 4.5 1.6872666359 0 1.6872666359 4.5 0 
1.6872666359 2.5 0 3.5 4.3127333641 0 2.5448645473 5.9628839255 0 
5.8438027206 4.298242306 0 3.341591884 6.1882059124 0 3.8079455038 5.2924572466 0 
4.0000028322 5.5805606494 0 0.80895730489 4.7699760833 0 2.2300239167 0.80895730489 0 
6.1910426951 2.2300239167 0 0.81140688702 2.7706116978 0 4.2293883022 0.81140688702 0 
6.1530370913 4.2585353481 0 2.1540193915 6.522253769 0 4.8162223334 6.4882902395 0 
4.8222111689 0.70955465736 0 6.2921473568 4.827319268 0 0.70955465736 2.1777888311 0 
6.3389745166 0.79855227087 0 0.79855227087 0.66102548337 0 6.2014477291 6.3389745166 0 
0.79902978757 6.339184919 0 2.827319268 0.70785264318 0 6.2921473568 2.827319268 0 
0.70785264318 4.172680732 0 2.984286409 6.1874521762 0 2.6004296679 5.6380503952 0 
4.3907348225 5.6293300039 0 2.4954354469 6.464014563 0 0.49511543862 4.857146981 0 
2.142853019 0.49511543862 0 6.5048845614 2.142853019 0 5.8109523545 2.6966506386 0 
3.3095189699 4.8399570492 0 1.1890476455 2.3033493614 0 2.6966506386 1.1890476455 0 
4.6966506386 1.1890476455 0 1.1890476455 4.3033493614 0 3.5 5.1333820886 0 
6.0092788027 4.6114103291 0 4.1180693191 6.5205687606 0 1.3559386168 0.35702514778 0 
5.6476385745 0.34601141574 0 0.34413339402 5.6496515319 0 0.34601141574 1.3523614255 0 
6.6539885843 5.6476385745 0 5.6440613832 6.6429748522 0 1.3559386168 6.6429748522 0 
6.6429748522 1.3559386168 0 3.691651827 6.1657024845 0 0.38131474442 4.0107495165 0 
0.35859789556 3.6542298248 0 2.9892504835 0.38131474442 0 3.3457701752 0.35859789556 0 
6.6186852556 2.9892504835 0 6.6414021044 3.3457701752 0 2.485711609 5.2962123554 0 
4.5142724884 5.301683263 0 4.1386885406 0.49621789734 0 0.49621789734 2.8613114594 0 
6.4653693356 4.1675183045 0 1.7815734083 0.35375209722 0 0.35191041811 5.2192251844 0 
5.2045327576 6.6420335985 0 5.2715908019 0.34496760504 0 0.34496760504 1.7284091981 0 
1.7912623484 6.6472833477 0 6.6462479028 1.7815734083 0 6.655032395 5.2715908019 0 
6.0018111307 0.33962155199 0 6.660378448 6.0018111307 0 0.33962155199 0.99818886931 0 
0.33789389548 6.0020556849 0 4.8431738401 0.36643899333 0 0.36643899333 2.1568261599 0 
6.6695014189 4.8502181121 0 3.3194031049 6.6880752893 0 0.98302760942 6.6572105079 0 
6.0170519767 6.6571754409 0 6.6571754409 0.9829480233 0 0.9829480233 0.34282455914 0 
0.60283050123 6.6812981717 0 6.6809416725 0.60267619269 0 0.60267619269 0.31905832746 0 
6.3973238073 6.6809416725 0 5.508864916 4.3176715804 0 3.7798225257 0.35426223421 0 
0.35426223421 3.2201774743 0 6.6429380014 3.7819238204 0 0.71132486541 5.5 0 
5.4647693027 6.3109555335 0 1.5 0.71132486541 0 3.5 0.71132486541 0 
0.71132486541 3.5 0 6.2886751346 1.5 0 6.2886751346 3.5 0 
[...]
CELL_DATA 1056
FIELD FieldData 1
radiation%20flux%20density 1 1056 double
9.3884849554e-13 9.3884849554e-13 1.4472828226e-10 1.4485025157e-10 1.6517962961e-10 1.6533672824e-10 1.9015117202e-10 1.8959151812e-10 1.7463110546e-10 
1.8928022918e-10 1.8936473751e-10 1.9002886886e-10 1.7388571845e-10 1.9013015447e-10 6.1215642677e-11 6.1215663444e-11 6.1226420614e-11 6.1226412591e-11 
8.7172320346e-11 8.7172271584e-11 8.7130861344e-11 8.7130840123e-11 6.2603486459e-11 6.2595533945e-11 6.2595614732e-11 6.26035072e-11 9.3884849554e-13 
9.3884849554e-13 1.4456644079e-10 1.4472828226e-10 1.6533679602e-10 1.6499135484e-10 1.9002885644e-10 1.7388248685e-10 1.8959150658e-10 1.7450743759e-10 
1.8938256238e-10 1.9006530931e-10 1.7388572789e-10 1.7450847342e-10 6.1226422364e-11 6.1215670872e-11 6.1226420614e-11 6.1215644854e-11 8.7172278377e-11 
8.7130820999e-11 8.7172320346e-11 8.7130857393e-11 6.2595559774e-11 6.2595553168e-11 6.2603515094e-11 6.2603514969e-11 9.3884849554e-13 9.3884849554e-13 
1.4456984536e-10 1.4478703908e-10 1.6526678214e-10 1.6549507129e-10 1.7347179691e-10 1.8994990637e-10 1.9033690915e-10 1.8944190668e-10 1.8926980585e-10 
1.89283491e-10 1.7463002831e-10 1.9015227601e-10 6.1215627467e-11 6.1226402421e-11 6.1215635612e-11 6.1226440056e-11 8.7172316116e-11 8.7172313926e-11 
8.7130855205e-11 8.7130861163e-11 6.2603516748e-11 6.2603523923e-11 6.2595582074e-11 6.2595552329e-11 9.3870690776e-13 9.3870690776e-13 1.4388445217e-10 
1.4395989471e-10 1.6499110044e-10 1.6549589619e-10 1.7384718048e-10 1.7373091432e-10 0.015115531017 1.7450679407e-10 1.7463153181e-10 0.015115531017 
1.7462943317e-10 1.7384720309e-10 6.1097878447e-11 6.1097868711e-11 6.1119563075e-11 6.1119572816e-11 8.6853299669e-11 8.6933865594e-11 8.6853281874e-11 
8.693388339e-11 6.2591905785e-11 6.2607281132e-11 6.260730829e-11 6.2591878625e-11 9.3871985513e-13 9.3871985513e-13 1.4249467586e-10 1.4403004842e-10 
1.6518384157e-10 1.6549607768e-10 0.015010388584 0.015115531017 1.7338834439e-10 1.7462145378e-10 1.8933208856e-10 1.7373347564e-10 1.9016153717e-10 
1.7463952562e-10 6.0928755519e-11 6.1128116433e-11 6.0928749227e-11 6.1128116433e-11 8.6355756354e-11 8.7081681929e-11 8.6355822548e-11 8.708164027e-11 
6.2528722257e-11 6.2670497713e-11 6.2670484585e-11 6.2528788452e-11 9.3884849554e-13 9.3884849554e-13 1.4474875508e-10 1.4478701797e-10 1.6526678214e-10 
1.6517962961e-10 1.7375977099e-10 1.7462998671e-10 1.9033689761e-10 1.8928346544e-10 1.9013121344e-10 1.7462996772e-10 1.7375974799e-10 1.8932101945e-10 
6.1215658213e-11 6.1226421854e-11 6.1226413469e-11 6.1215658213e-11 8.7172272496e-11 8.7172316116e-11 8.7130904774e-11 8.7130858082e-11 6.2603516748e-11 
6.2603524534e-11 6.2595562292e-11 6.2595541581e-11 4.1954783913 4.1954783913 3.5519933122 3.5515088887 3.4618529399 3.4614486252 
3.2743735048 3.2743946926 3.273646191 3.2736472693 3.273646191 3.2743735048 3.2743946926 3.2736472693 3.9145068067 
3.9146580146 3.9146580146 3.9145068067 4.1092868004 4.1092452714 4.1092868004 4.1092452714 3.8809213439 3.8808857909 
3.8808857909 3.8809213439 9.3884849554e-13 9.3884849554e-13 1.4449731246e-10 1.4483184454e-10 1.6549624914e-10 1.6499145256e-10 1.7388240722e-10 
1.7376303275e-10 1.74507279e-10 1.7463102792e-10 0.015115531017 1.7462994931e-10 0.015115531017 1.7388236742e-10 6.1215661166e-11 6.1226404972e-11 
6.1215670936e-11 6.12263952e-11 8.7130909968e-11 8.7172324219e-11 8.7130892176e-11 8.7172342011e-11 6.2595528297e-11 6.2603521226e-11 6.2595555457e-11 
6.2603494067e-11 9.3871985513e-13 9.3871985513e-13 1.4224701511e-10 1.4390290853e-10 1.6542582726e-10 1.6499129769e-10 1.7367643913e-10 1.7422394504e-10 
1.8947717037e-10 0.015115531017 1.7449884528e-10 1.736763912e-10 1.9016782716e-10 0.015010388583 6.0928770556e-11 6.1128152574e-11 6.0928736935e-11 
6.1128130554e-11 8.6355769453e-11 8.6355845657e-11 8.7081655671e-11 8.7081592795e-11 6.2528775737e-11 6.2670480079e-11 6.2528771223e-11 6.2670460086e-11 
9.3884849554e-13 9.3884849554e-13 1.4456644079e-10 1.447869593e-10 1.6551821596e-10 1.6526678214e-10 1.9033690915e-10 1.900277791e-10 1.8928347786e-10 
1.738824544e-10 1.8940688217e-10 1.8938260455e-10 1.7463000833e-10 1.9011338857e-10 6.1226416643e-11 6.1215713463e-11 6.1215635084e-11 6.1226400161e-11 
8.7130840338e-11 8.71308609e-11 8.7172268047e-11 8.7172316116e-11 6.2595558081e-11 6.2603516748e-11 6.260349404e-11 6.2595551849e-11 9.3884849554e-13 
9.3884849554e-13 1.4456644079e-10 1.4494563298e-10 1.6533678964e-10 1.6542454985e-10 1.7388245601e-10 1.7450737065e-10 1.90028862e-10 1.9006530931e-10 
1.8938256238e-10 1.8935113273e-10 1.7450845396e-10 1.7376306282e-10 6.1226414941e-11 6.1215670872e-11 6.1226413321e-11 6.1215644854e-11 8.7172315426e-11 
8.7130857393e-11 8.7130864251e-11 8.7172322427e-11 6.2603514969e-11 6.2595526858e-11 6.2603492627e-11 6.2595553168e-11 9.3871985513e-13 9.3871985513e-13 
1.4260039518e-10 1.4387329871e-10 1.6533664087e-10 1.6548484932e-10 1.7451689097e-10 1.8919674218e-10 1.9014273277e-10 1.8924926747e-10 1.7345858012e-10 
1.8937905929e-10 1.8928134832e-10 1.8992513365e-10 6.0928734872e-11 6.0928752605e-11 6.1128094798e-11 6.1128109744e-11 8.6355782768e-11 8.6355824652e-11 
8.7081571713e-11 8.7081634146e-11 6.2670424951e-11 6.2528813345e-11 6.2670470301e-11 6.2528754727e-11 1.2566368624e-09 1.2566368624e-09 1.2566373462e-09 
1.2566368624e-09 1.2566370246e-09 1.2566370246e-09 1.2566367743e-09 1.2566373748e-09 1.2566370657e-09 1.2566370657e-09 1.2566370657e-09 1.2566368872e-09 
1.2566363462e-09 1.2566372072e-09 1.2566370569e-09 1.2566373438e-09 1.2566373438e-09 1.2450412114e-09 1.2459997132e-09 1.2450412114e-09 1.256637033e-09 
1.2453514401e-09 1.2408708199e-09 1.2408708199e-09 1.2408703999e-09 1.198108912e-09 1.1827876713e-09 1.1827877019e-09 1.182787567e-09 1.1824375666e-09 
1.1824375974e-09 1.1840375025e-09 1.2566373179e-09 1.2566373179e-09 1.256637081e-09 1.2439945894e-09 1.1951582613e-09 1.240717326e-09 1.240717326e-09 
1.2401006914e-09 1.2340236306e-09 1.2566364524e-09 1.256636772e-09 1.2334936036e-09 1.2566372717e-09 1.2566361848e-09 1.2566361794e-09 1.2566361794e-09 
1.2566370075e-09 1.2566370075e-09 1.25663701e-09 1.2566371016e-09 1.2566371372e-09 1.2566371372e-09 1.2566370957e-09 1.2566369457e-09 1.2566369457e-09 
1.2332821276e-09 1.2334650707e-09 1.2334650526e-09 1.2474998497e-09 1.2474998497e-09 1.2474998497e-09 1.2473959351e-09 1.2473959351e-09 1.2566369546e-09 
1.2566377003e-09 1.2566370516e-09 1.2566370426e-09 1.2566370426e-09 1.2566374014e-09 1.2566372296e-09 1.2566371909e-09 1.2566372296e-09 1.256637011e-09 
1.256637011e-09 1.2566369123e-09 1.2566372612e-09 1.2428227489e-09 1.2566366198e-09 1.2566373026e-09 1.2566369898e-09 1.2566380605e-09 1.2566384665e-09 
1.2566380605e-09 1.2566384665e-09 1.2566380605e-09 1.2566373806e-09 1.256636538e-09 1.2566365453e-09 1.2566365453e-09 1.2566365124e-09 1.2566365124e-09 
1.2566365124e-09 1.2351024014e-09 1.2351022538e-09 1.2336167475e-09 1.2334982144e-09 1.2349415472e-09 1.2351024176e-09 1.2334981963e-09 1.2344646119e-09 
1.2566370062e-09 1.2566370062e-09 1.2566372148e-09 1.2566372148e-09 1.256637388e-09 1.2566367923e-09 1.2566379742e-09 1.1829721136e-09 1.1829721136e-09 
1.1829721323e-09 1.1822160587e-09 1.1822160777e-09 1.2566373456e-09 1.2566376059e-09 1.256637257e-09 1.2566375545e-09 1.2354587231e-09 1.2354587344e-09 
1.2351336554e-09 1.2349212337e-09 1.2354587403e-09 1.2350988703e-09 1.2339497452e-09 1.2339497631e-09 1.2566371186e-09 1.2566370066e-09 1.2566370544e-09 
1.2566370544e-09 1.2566370544e-09 1.2476134911e-09 1.2476134911e-09 1.2476134911e-09 1.2474689584e-09 1.2474689584e-09 1.2566368735e-09 1.2566371459e-09 
1.2566371459e-09 1.2566370561e-09 1.2566375496e-09 1.2566375031e-09 1.2566371139e-09 1.2566370875e-09 1.2566370875e-09 1.2566367112e-09 1.256637198e-09 
1.2566369655e-09 1.2566370203e-09 1.2566370203e-09 1.2566369541e-09 1.2566372232e-09 1.2566366866e-09 1.2566372892e-09 1.2566372174e-09 1.2566372174e-09 
1.2566372736e-09 1.2566369614e-09 9.4202339279e-10 1.2566373396e-09 9.457596519e-10 1.1132772596e-09 1.2566367092e-09 1.1148187348e-09 1.2566369514e-09 
1.2566369514e-09 1.2566372193e-09 1.2446644247e-09 1.2446644247e-09 1.2446644247e-09 1.2445536248e-09 1.2445536248e-09 1.2566377278e-09 1.2566371571e-09 
1.2566371661e-09 1.2566371661e-09 1.2566369965e-09 1.2566378123e-09 1.2566371879e-09 1.2566371879e-09 1.2566368884e-09 1.2566370872e-09 1.2566369963e-09 
1.2566369963e-09 1.2566369963e-09 1.2566369564e-09 1.2456907012e-09 1.2566366267e-09 1.2566366254e-09 1.2566375388e-09 1.2566375388e-09 1.2566375388e-09 
1.2566373483e-09 1.2566369641e-09 1.2566370031e-09 1.2566370031e-09 1.2566376983e-09 1.2566376983e-09 1.2566376983e-09 1.2566367285e-09 1.2566371673e-09 
1.2566371594e-09 1.2566367614e-09 1.2566367884e-09 1.2566371272e-09 1.2566374441e-09 1.2566371272e-09 1.2566367884e-09 1.2566371697e-09 1.2566366456e-09 
1.2566366456e-09 1.2566366456e-09 1.2566369197e-09 1.1807720671e-09 1.180772069e-09 1.1807720869e-09 1.2458338299e-09 1.2458338299e-09 1.2458338299e-09 
1.248496649e-09 1.2484966337e-09 1.2484966337e-09 1.2566369334e-09 1.256637079e-09 1.256637079e-09 1.2566367508e-09 1.256637346e-09 1.2566378701e-09 
1.2566371193e-09 1.2566378956e-09 1.2566377874e-09 1.2566377874e-09 1.256637606e-09 1.256637218e-09 1.2566370676e-09 1.2566376001e-09 1.2566372884e-09 
1.2566376001e-09 1.2566372371e-09 1.2566372371e-09 1.2566371193e-09 1.2566368831e-09 1.2566366144e-09 1.2566368831e-09 1.2566368831e-09 1.1823370874e-09 
1.2566367615e-09 1.256637681e-09 1.2566368742e-09 1.2566368742e-09 1.2566363269e-09 1.2485411222e-09 1.2566371494e-09 1.2566369602e-09 1.2566369602e-09 
1.2566372337e-09 1.2566375358e-09 1.2566369809e-09 1.2566370044e-09 1.2566370044e-09 1.2566366559e-09 1.2566366559e-09 1.2566369608e-09 1.2566368865e-09 
1.2566367863e-09 1.2566366093e-09 1.2566366093e-09 1.2566366093e-09 1.2566370922e-09 1.2566371294e-09 1.2566371294e-09 1.2566379769e-09 1.2566366477e-09 
1.2426147148e-09 1.256637318e-09 1.2566373828e-09 1.2566362538e-09 1.256636214e-09 1.2566374186e-09 1.2566374186e-09 1.256636214e-09 1.2566367006e-09 
1.2566362538e-09 1.2566373828e-09 1.2566369846e-09 1.2566373828e-09 1.256636214e-09 9.3583639538e-10 9.6236950235e-10 9.8398026193e-10 9.8398032445e-10 
9.5219377203e-10 9.6236950302e-10 9.6236969788e-10 9.6236973102e-10 9.5219372996e-10 9.5219376167e-10 9.5219378451e-10 9.565537748e-10 9.8398028497e-10 
9.5219364823e-10 0.615433504 9.8398034748e-10 9.6033278505e-10 1.1173670132e-09 9.8398032445e-10 9.6236973102e-10 9.7505698784e-10 9.6699438185e-10 
1.2566375455e-09 1.2566364479e-09 9.6571651562e-10 9.5255201963e-10 9.5309409919e-10 9.6613755346e-10 1.2566368023e-09 1.2566369413e-09 1.2566369413e-09 
1.2566371764e-09 1.1879921424e-09 1.1888699807e-09 1.2566363554e-09 1.2566367542e-09 1.256637764e-09 1.256637011e-09 1.2566364284e-09 1.2566364284e-09 
1.2566370255e-09 1.2434244895e-09 1.2434333241e-09 1.2566369873e-09 1.1857976181e-09 1.1929461591e-09 1.1929461861e-09 1.1929461663e-09 1.2566369061e-09 
1.2566374405e-09 1.192452883e-09 1.1924529102e-09 1.1774411414e-09 1.2566373182e-09 1.2566371729e-09 1.256637162e-09 1.256637162e-09 1.2566371978e-09 
1.2420024996e-09 1.2566363158e-09 1.2566369677e-09 9.3058327649e-10 9.2190184544e-10 9.2691305806e-10 9.3058327649e-10 9.2190182262e-10 9.2190184544e-10 
9.3058327649e-10 9.225003492e-10 9.2190168998e-10 9.305834078e-10 9.219017128e-10 9.305834078e-10 1.2566368598e-09 9.5321775122e-10 9.3798108601e-10 
9.5660753645e-10 9.5660742517e-10 9.3794513925e-10 9.5704066259e-10 9.3794501201e-10 9.6515644786e-10 9.5361440891e-10 9.6548475874e-10 9.4810229243e-10 
9.5704064895e-10 9.5704065397e-10 9.5361416417e-10 9.5660753734e-10 9.3785116579e-10 9.5430718821e-10 9.3785132178e-10 9.6515645337e-10 9.6173739515e-10 
9.536143783e-10 9.536141764e-10 9.5361414579e-10 9.5376754113e-10 9.5376759932e-10 9.6173740133e-10 9.6547663095e-10 9.449465953e-10 9.3785119454e-10 
9.5376754255e-10 9.6173736297e-10 9.6855911627e-10 9.5361443048e-10 1.25663642e-09 1.2566373321e-09 1.2566373321e-09 1.1804651646e-09 1.256637453e-09 
1.1819587878e-09 1.1830968304e-09 1.1830968004e-09 1.1830968304e-09 1.1827961014e-09 1.1827961209e-09 1.242526669e-09 1.2566377671e-09 1.2566377671e-09 
1.2566375461e-09 1.2566372874e-09 1.2566372136e-09 1.2566372136e-09 1.2566368097e-09 1.2260504409e-09 1.2566372695e-09 1.2566369908e-09 1.2566369908e-09 
1.2566369659e-09 1.2566372155e-09 1.2566369076e-09 1.1944943177e-09 1.1944942405e-09 1.1944942652e-09 1.1944389001e-09 1.2566376878e-09 1.2300830989e-09 
1.256637715e-09 1.229225488e-09 9.2323502005e-10 9.2223907068e-10 1.2444273377e-09 1.2444273397e-09 1.2444273397e-09 1.1212444216e-09 1.1115988648e-09 
1.1100999702e-09 1.104203864e-09 1.1042039386e-09 1.105728557e-09 1.1118674225e-09 1.1099342744e-09 1.1187507414e-09 1.10993428e-09 1.1187507369e-09 
1.1122224036e-09 1.1042038599e-09 1.1118674418e-09 1.1042039772e-09 1.1042039731e-09 1.1118674361e-09 1.1057285145e-09 1.1042038995e-09 1.1057285099e-09 
1.1187507351e-09 1.1216484309e-09 1.2566374054e-09 1.0972804634e-09 1.0972804634e-09 1.1168821404e-09 1.1168821651e-09 1.1096350878e-09 1.103203296e-09 
1.0972803372e-09 1.0972804724e-09 1.1168821404e-09 1.1168821464e-09 1.116882171e-09 1.0972803282e-09 1.2566378237e-09 1.2474436487e-09 1.2474436487e-09 
1.2474365787e-09 1.2474435871e-09 1.2566372826e-09 1.2566374682e-09 1.2566373399e-09 1.2566373399e-09 1.2566373399e-09 9.125419484e-10 1.2305324543e-09 
1.2566372447e-09 1.2317548557e-09 1.2566373921e-09 1.2566373921e-09 1.2333492575e-09 1.2333492392e-09 1.2333492703e-09 1.2566388837e-09 1.2566386449e-09 
1.256638573e-09 1.256638573e-09 1.256638573e-09 1.2566385876e-09 1.2566385876e-09 1.2566385876e-09 1.2566369714e-09 1.2566371735e-09 1.2566369681e-09 
7.9330304987e-10 0.17746057153 7.9358024703e-10 7.9330301046e-10 7.9358037056e-10 7.9358023074e-10 7.933030211e-10 7.9358033298e-10 7.9330300652e-10 
7.9358039249e-10 0.72338086934 7.9308017914e-10 7.9308023536e-10 7.9308021577e-10 7.9330302096e-10 7.9308023369e-10 7.9358027578e-10 7.935802893e-10 
7.9358018587e-10 0.72338086934 7.9358042164e-10 7.9308027347e-10 0.17746057153 7.9358040454e-10 7.9157170302e-10 7.9059711595e-10 7.9065757289e-10 
7.9110498455e-10 7.8615694332e-10 7.8633234925e-10 7.8603108229e-10 7.85915623e-10 1.2566367595e-09 1.0961077894e-09 1.0952648019e-09 1.256637209e-09 
1.2566380171e-09 1.2566368357e-09 1.2566368555e-09 1.2566367377e-09 1.2566369617e-09 1.2566369617e-09 1.2566369617e-09 1.2566368965e-09 1.256636982e-09 
1.0461982435e-09 1.2566365718e-09 1.2566365718e-09 1.2566365718e-09 1.0486046651e-09 1.2566372597e-09 1.2566372597e-09 1.2566369029e-09 1.2566365524e-09 
1.0408527532e-09 1.1391586002e-09 1.0413168316e-09 1.2566371405e-09 1.2566374338e-09 1.2566374338e-09 1.2566374338e-09 1.0665597487e-09 9.0008689224e-10 
1.2566367747e-09 1.2566379908e-09 1.2566373568e-09 1.047974423e-09 1.047974423e-09 1.0415123981e-09 1.0479744223e-09 1.0415123981e-09 1.047974423e-09 
0.023373002575 1.0415123771e-09 1.0415123771e-09 1.0415123771e-09 1.0479744223e-09 0.023082609369 1.256637575e-09 1.2566375666e-09 1.256637575e-09 
1.2566367244e-09 1.0616486328e-09 1.0473332604e-09 1.0574735591e-09 0.24693609349 1.057473464e-09 1.0574735447e-09 1.0574735462e-09 1.0574735616e-09 
1.0574734625e-09 1.0574734768e-09 0.24693609349 1.0574735462e-09 1.057473464e-09 1.0574734794e-09 1.2566372188e-09 1.2566362775e-09 1.2566362775e-09 
1.2566371798e-09 1.2566391678e-09 1.2566391678e-09 1.2566370622e-09 1.2566369098e-09 1.1534718149e-09 1.1625778358e-09 1.256637168e-09 1.2421269717e-09 
1.2566374048e-09 1.2566372799e-09 1.2566372799e-09 1.2566368807e-09 1.2566385891e-09 1.2435203002e-09 1.2566366628e-09 1.2566395424e-09 1.2566364886e-09 
1.2195209855e-09 1.2204432425e-09 1.2204429414e-09 1.2204432167e-09 1.2160311967e-09 1.2160311967e-09 1.2160312788e-09 1.2160312464e-09 1.2160311643e-09 
1.2204429414e-09 1.2204429672e-09 1.2178812799e-09 1.1767194172e-09 1.1752561783e-09 1.1767194603e-09 1.1752561424e-09 1.1752561351e-09 1.1767194953e-09 
0.03719731331 1.1752561854e-09 1.1767194533e-09 0.03718610603 1.1767195025e-09 1.1752561419e-09 1.2566375637e-09 1.2566375637e-09 1.2566369254e-09 
1.2566366255e-09 1.1714122782e-09 1.1717393414e-09 1.1754662993e-09 1.1701025848e-09 1.03193966e-09 1.0334990143e-09 1.2566365363e-09 1.2566365612e-09 
1.2566365612e-09 1.2566366962e-09 1.2566370228e-09 1.2566370228e-09 1.2566370228e-09 1.2566365786e-09 1.2566365786e-09 1.2071044209e-09 1.256636802e-09 
1.2566370632e-09 1.2566370232e-09 1.2566369825e-09 1.2566370232e-09 1.237552258e-09 1.2566367135e-09 1.2566373019e-09 1.2566373019e-09 0.63914954496 
9.4192876096e-10 9.0413758424e-10 9.0413742557e-10 7.9122368451e-10 7.9044589838e-10 7.9044591859e-10 0.72735232543 0.17858061393 7.9122364455e-10 
0.17858061393 0.72735232543 1.0510668704e-09 0.2557620704 0.2557620704 1.0510668704e-09 0.039727145287 1.1706431621e-09 0.039727145287 
1.1706432148e-09 0.025140811594 1.0273741484e-09 1.0273741217e-09 0.025140811594 1.2566371551e-09 1.2566371551e-09 9.4046042674e-10 9.4029360511e-10 
0.73362597109 9.041377176e-10 7.9119529059e-10 7.9044662878e-10 0.72813508284 0.17858061393 0.17858061393 7.9044784563e-10 7.9119163772e-10 
0.72813609711 1.0501593766e-09 1.0500559655e-09 0.0235233208 0.023531037721 0.046179002593 0.046181668804 1.1704454331e-09 1.1704039109e-09 
0.28943964975 0.28941228401 1.0273875606e-09 1.0274141906e-09 1.2566370827e-09 1.2566370827e-09 9.4473263886e-10 0.6399203799 9.0413746671e-10 
9.0413749316e-10 7.9045615948e-10 0.17858061393 7.9127868713e-10 0.72736128028 7.9127865973e-10 0.72736128028 7.904561316e-10 0.17858061393 
0.25615157792 1.0527981743e-09 1.0527981743e-09 0.25615157792 0.039922148679 0.039922148679 1.1712212516e-09 1.1712212601e-09 1.0276340701e-09 
0.025218326594 0.025218326594 1.0276340492e-09 
POINT_DATA 565
FIELD FieldData 1
radiation%20flux%20density 1 565 double
1.2566385803e-09 1.2566385803e-09 1.2566387643e-09 1.2566385803e-09 8.4716753201e-10 7.821581623e-10 4.8381716152e-10 8.4400408076e-10 4.8382108599e-10 
8.4400408094e-10 8.4716814895e-10 7.8215816296e-10 4.8313422506e-10 8.4464928623e-10 7.8201754638e-10 4.8316655129e-10 4.8314739567e-10 8.4464867148e-10 
7.758009313e-10 4.8255136204e-10 4.8125840005e-10 8.450552311e-10 1.0481161188 1.0482128441 8.4231664144e-10 4.818677201e-10 4.8313331783e-10 
8.4464867025e-10 7.820175457e-10 4.831597835e-10 7.7729675907e-10 8.4842216677e-10 7.8215814806e-10 8.2802319941e-10 8.4720016416e-10 7.7547308692e-10 
1.0488653343 1.0487684822 1.2566378173e-09 1.2566370462e-09 1.2566369343e-09 1.25663701e-09 1.2566371488e-09 1.256637427e-09 1.2566370154e-09 
1.2566369986e-09 1.2566371451e-09 1.2566379591e-09 1.256638018e-09 1.2566370409e-09 1.2566369122e-09 1.2566371277e-09 1.2566369517e-09 1.2566368296e-09 
1.2566376348e-09 1.2566375462e-09 1.2566367735e-09 1.256637054e-09 1.2566372378e-09 1.2566370115e-09 1.2566373545e-09 1.2566370504e-09 1.2566369986e-09 
1.2566371451e-09 1.2566379591e-09 1.256638018e-09 1.2566370409e-09 1.2566369122e-09 1.2566371277e-09 1.2566369517e-09 1.2566368296e-09 1.2566376348e-09 
1.2566378173e-09 1.2566370462e-09 1.2566369343e-09 1.25663701e-09 1.2566371488e-09 1.256637427e-09 1.2566370161e-09 1.2566370524e-09 1.2566370696e-09 
1.2566370146e-09 1.2566374928e-09 1.2566378427e-09 1.2566373856e-09 1.2566372421e-09 1.2566369537e-09 1.2566368296e-09 1.2566376348e-09 1.2566378173e-09 
1.2566370437e-09 1.2566369072e-09 1.2566373079e-09 1.2566370554e-09 1.2566366797e-09 1.2566379492e-09 1.2566381528e-09 1.2566369691e-09 1.2566368529e-09 
1.2566372406e-09 1.2566379789e-09 1.2566375578e-09 1.2566369051e-09 1.2566372154e-09 1.2566370042e-09 1.2566375795e-09 5.7185319567e-10 5.6895539242e-10 
5.7116535377e-10 5.2528354166e-10 5.2648474813e-10 5.6657615484e-10 5.6959810979e-10 5.7208771685e-10 5.2269316089e-10 5.6278606867e-10 5.7339732711e-10 
5.7588843802e-10 5.6807601812e-10 5.65176711e-10 5.7494215823e-10 5.2905884861e-10 5.3034618397e-10 5.3034618199e-10 5.2648324743e-10 5.6657770844e-10 