# vtk DataFile Version 4.2
vtk output
ASCII
DATASET UNSTRUCTURED_GRID
POINTS 565 double
0 0 0 7 0 0 0 7 0 
7 7 0 1 1 0 2 1 0 
2 2 0 1 2 0 5 2 0 
5 1 0 6 1 0 6 2 0 
3 2 0 3 1 0 4 1 0 
4 2 0 5 3 0 6 3 0 
6 4 0 5 4 0 5 5 0 
4 5 0 4 4 0 3 4 0 
3 5 0 2 5 0 2 4 0 
1 4 0 1 3 0 2 3 0 
2 6 0 1 6 0 1 5 0 
6 5 0 6 6 0 5 6 0 
3 3 0 4 3 0 0.38888888889 0 0 
0.77777777778 0 0 1.1666666667 0 0 1.5555555556 0 0 
1.9444444444 0 0 2.3333333333 0 0 2.7222222222 0 0 
3.1111111111 0 0 3.5 0 0 3.8888888889 0 0 
4.2777777778 0 0 4.6666666667 0 0 5.0555555556 0 0 
5.4444444444 0 0 5.8333333333 0 0 6.2222222222 0 0 
6.6111111111 0 0 0 6.6111111111 0 0 6.2222222222 0 
0 5.8333333333 0 0 5.4444444444 0 0 5.0555555556 0 
0 4.6666666667 0 0 4.2777777778 0 0 3.8888888889 0 
0 3.5 0 0 3.1111111111 0 0 2.7222222222 0 
0 2.3333333333 0 0 1.9444444444 0 0 1.5555555556 0 
0 1.1666666667 0 0 0.77777777778 0 0 0.38888888889 0 
7 0.38888888889 0 7 0.77777777778 0 7 1.1666666667 0 
7 1.5555555556 0 7 1.9444444444 0 7 2.3333333333 0 
7 2.7222222222 0 7 3.1111111111 0 7 3.5 0 
7 3.8888888889 0 7 4.2777777778 0 7 4.6666666667 0 
7 5.0555555556 0 7 5.4444444444 0 7 5.8333333333 0 
7 6.2222222222 0 7 6.6111111111 0 6.6111111111 7 0 
6.2222222222 7 0 5.8333333333 7 0 5.4444444444 7 0 
5.0555555556 7 0 4.6666666667 7 0 4.2777777778 7 0 
3.8888888889 7 0 3.5 7 0 3.1111111111 7 0 
2.7222222222 7 0 2.3333333333 7 0 1.9444444444 7 0 
1.5555555556 7 0 1.1666666667 7 0 0.77777777778 7 0 
0.38888888889 7 0 1.3333333333 1 0 1.6666666667 1 0 
2 1.3333333333 0 2 1.6666666667 0 1.6666666667 2 0 
1.3333333333 2 0 1 1.6666666667 0 1 1.3333333333 0 
5 1.6666666667 0 5 1.3333333333 0 5.3333333333 1 0 
5.6666666667 1 0 6 1.3333333333 0 6 1.6666666667 0 
5.6666666667 2 0 5.3333333333 2 0 2.3333333333 2 0 
2.6666666667 2 0 3 1.6666666667 0 3 1.3333333333 0 
3.3333333333 1 0 3.6666666667 1 0 4 1.3333333333 0 
4 1.6666666667 0 4.3333333333 2 0 4.6666666667 2 0 
5 2.3333333333 0 5 2.6666666667 0 5.3333333333 3 0 
5.6666666667 3 0 6 3.3333333333 0 6 3.6666666667 0 
5.6666666667 4 0 5.3333333333 4 0 5 4.3333333333 0 
5 4.6666666667 0 4.6666666667 5 0 4.3333333333 5 0 
4 4.6666666667 0 4 4.3333333333 0 3.6666666667 4 0 
3.3333333333 4 0 3 4.3333333333 0 3 4.6666666667 0 
2.6666666667 5 0 2.3333333333 5 0 2 4.6666666667 0 
2 4.3333333333 0 1.6666666667 4 0 1.3333333333 4 0 
1 3.6666666667 0 1 3.3333333333 0 1.3333333333 3 0 
1.6666666667 3 0 2 2.6666666667 0 2 2.3333333333 0 
2 5.3333333333 0 2 5.6666666667 0 1.6666666667 6 0 
1.3333333333 6 0 1 5.6666666667 0 1 5.3333333333 0 
1.3333333333 5 0 1.6666666667 5 0 5.3333333333 5 0 
5.6666666667 5 0 6 5.3333333333 0 6 5.6666666667 0 
5.6666666667 6 0 5.3333333333 6 0 5 5.6666666667 0 
5 5.3333333333 0 3 2.3333333333 0 3 2.6666666667 0 
3.3333333333 3 0 3.6666666667 3 0 4 2.6666666667 0 
4 2.3333333333 0 3.6666666667 2 0 3.3333333333 2 0 
2 3.3333333333 0 2 3.6666666667 0 2.3333333333 4 0 
2.6666666667 4 0 3 3.6666666667 0 3 3.3333333333 0 
2.6666666667 3 0 2.3333333333 3 0 4 3.3333333333 0 
4 3.6666666667 0 4.3333333333 4 0 4.6666666667 4 0 
5 3.6666666667 0 5 3.3333333333 0 4.6666666667 3 0 
4.3333333333 3 0 1.2951917063 1.5 0 1.7050506247 1.5 0 
1.5000403885 1.2474399183 0 1.5000403885 1.7525600817 0 1.7576802451 1.7576802451 0 
1.2423197549 1.2423197549 0 1.7576802451 1.2423197549 0 1.2423197549 1.7576802451 0 
1.5 3.7048082937 0 1.5 3.2949493753 0 1.2474399183 3.4999596115 0 
1.7525600817 3.4999596115 0 1.2423197549 3.7576802451 0 1.7576802451 3.2423197549 0 
1.7576802451 3.7576802451 0 1.2423197549 3.2423197549 0 1.7048082937 5.5 0 
1.2949493753 5.5 0 1.4999596115 5.2474399183 0 1.4999596115 5.7525600817 0 
1.2423197549 5.2423197549 0 1.7576802451 5.7576802451 0 1.7576802451 5.2423197549 0 
1.2423197549 5.7576802451 0 2.5 2.297798335 0 2.5 2.7026766338 0 
2.2474399183 2.5000791615 0 2.7525600817 2.5000791615 0 2.2423197549 2.7576802451 0 
2.7576802451 2.7576802451 0 2.2423197549 2.2423197549 0 2.7576802451 2.2423197549 0 
2.5 4.6985523849 0 2.5 4.2971333787 0 2.2474399183 4.4992809606 0 
2.7525600817 4.4992809606 0 2.7576802451 4.2423197549 0 2.2423197549 4.7576802451 0 
2.7576802451 4.7576802451 0 2.2423197549 4.2423197549 0 3.5 1.7048082937 0 
3.5 1.2949493753 0 3.2474399183 1.4999596115 0 3.7525600817 1.4999596115 0 
3.2423197549 1.2423197549 0 3.2423197549 1.7576802451 0 3.7576802451 1.2423197549 0 
3.7576802451 1.7576802451 0 3.5 3.2951917063 0 3.5 3.7050506247 0 
3.2474399183 3.5000403885 0 3.7525600817 3.5000403885 0 3.2423197549 3.2423197549 0 
3.7576802451 3.7576802451 0 3.2423197549 3.7576802451 0 3.7576802451 3.2423197549 0 
4.5 2.2951917063 0 4.5 2.7050506247 0 4.2474399183 2.5000403885 0 
4.7525600817 2.5000403885 0 4.7576802451 2.2423197549 0 4.2423197549 2.2423197549 0 
4.7576802451 2.7576802451 0 4.2423197549 2.7576802451 0 4.6985523849 4.5 0 
4.2971333787 4.5 0 4.4992809606 4.7525600817 0 4.4992809606 4.2474399183 0 
4.7576802451 4.7576802451 0 4.2423197549 4.7576802451 0 4.7576802451 4.2423197549 0 
4.2423197549 4.2423197549 0 5.2951917063 1.5 0 5.7050506247 1.5 0 
5.5000403885 1.2474399183 0 5.5000403885 1.7525600817 0 5.2423197549 1.7576802451 0 
5.7576802451 1.2423197549 0 5.2423197549 1.2423197549 0 5.7576802451 1.7576802451 0 
5.5 3.2951917063 0 5.5 3.7050506247 0 5.7525600817 3.5000403885 0 
5.2474399183 3.5000403885 0 5.7576802451 3.2423197549 0 5.2423197549 3.7576802451 0 
5.7576802451 3.7576802451 0 5.2423197549 3.2423197549 0 5.6985523849 5.5 0 
5.2971333787 5.5 0 5.4992809606 5.2474399183 0 5.4992809606 5.7525600817 0 
5.2423197549 5.2423197549 0 5.7576802451 5.2423197549 0 5.7576802451 5.7576802451 0 
5.2423197549 5.7576802451 0 3.7485855544 6.6942501976 0 2.2872656985 5.8378913721 0 
4.7119339728 5.8373697827 0 2.8759754619 6.5951459244 0 2.8162186717 5.3084308736 0 
3.186129153 5.2921568433 0 2.9979032054 5.5850721589 0 3.3402908331 5.6008010525 0 
4.1834772538 5.3076746294 0 4.7107049802 6.1677403394 0 4.4211946596 6.0016838939 0 
0.27665997492 2.5838218441 0 6.7053237048 2.42793991 0 0.29467629521 4.57206009 0 
4.4161781559 0.27665997492 0 6.663212343 4.4722222222 0 2.42793991 0.29467629521 0 
2.2918240758 6.1960938346 0 3.1734987121 5.8836777691 0 3.5136330362 5.8882723168 0 
6.6167962299 6.3741865029 0 6.3741865029 0.38320377014 0 0.38357251857 6.3760800284 0 
0.38320377014 0.6258134971 0 5.5 4.7113248654 0 2.5 1.6872666359 0 
5.8514999722 2.3378951476 0 3.6772759043 4.8414452564 0 4.3378951476 1.1485000278 0 
1.1485000278 4.6621048524 0 1.1485000278 2.6621048524 0 2.3378951476 1.1485000278 0 
5.1103344757 6.2741611014 0 0.71132486541 5.1666666667 0 6.2886751346 1.8333333333 0 
1.8333333333 0.71132486541 0 1.8899895413 6.2784546756 0 5.1666666667 0.71132486541 0 
6.2886751346 5.1666666667 0 0.71132486541 1.8333333333 0 3.8333333333 0.71132486541 0 
6.2886751346 3.8333333333 0 0.71132486541 3.1666666667 0 6.2939163714 3.1693263045 0 
3.1693263045 0.70608362863 0 0.70608362863 3.8306736955 0 6.3007298331 5.8302758913 0 
5.8302758913 0.69927016685 0 0.68791714935 5.8284678454 0 0.69927016685 1.1697241087 0 
1.1703128001 0.69343635082 0 1.1703128001 6.3065636492 0 5.8296871999 6.3065636492 0 
6.3065636492 1.1703128001 0 4.4127643558 6.3484393703 0 4.0729408297 6.1740044985 0 
5.3127333641 2.5 0 4.5 1.6872666359 0 1.6872666359 4.5 0 
1.6872666359 2.5 0 3.5 4.3127333641 0 2.5448645473 5.9628839255 0 
5.8438027206 4.298242306 0 3.341591884 6.1882059124 0 3.8079455038 5.2924572466 0 
4.0000028322 5.5805606494 0 0.80895730489 4.7699760833 0 2.2300239167 0.80895730489 0 
6.1910426951 2.2300239167 0 0.81140688702 2.7706116978 0 4.2293883022 0.81140688702 0 
6.1530370913 4.2585353481 0 2.1540193915 6.522253769 0 4.8162223334 6.4882902395 0 
4.8222111689 0.70955465736 0 6.2921473568 4.827319268 0 0.70955465736 2.1777888311 0 
6.3389745166 0.79855227087 0 0.79855227087 0.66102548337 0 6.2014477291 6.3389745166 0 
0.79902978757 6.339184919 0 2.827319268 0.70785264318 0 6.2921473568 2.827319268 0 
0.70785264318 4.172680732 0 2.984286409 6.1874521762 0 2.6004296679 5.6380503952 0 
4.3907348225 5.6293300039 0 2.4954354469 6.464014563 0 0.49511543862 4.857146981 0 
2.142853019 0.49511543862 0 6.5048845614 2.142853019 0 5.8109523545 2.6966506386 0 
3.3095189699 4.8399570492 0 1.1890476455 2.3033493614 0 2.6966506386 1.1890476455 0 
4.6966506386 1.1890476455 0 1.1890476455 4.3033493614 0 3.5 5.1333820886 0 
6.0092788027 4.6114103291 0 4.1180693191 6.5205687606 0 1.3559386168 0.35702514778 0 
5.6476385745 0.34601141574 0 0.34413339402 5.6496515319 0 0.34601141574 1.3523614255 0 
6.6539885843 5.6476385745 0 5.6440613832 6.6429748522 0 1.3559386168 6.6429748522 0 
6.6429748522 1.3559386168 0 3.691651827 6.1657024845 0 0.38131474442 4.0107495165 0 
0.35859789556 3.6542298248 0 2.9892504835 0.38131474442 0 3.3457701752 0.35859789556 0 
6.6186852556 2.9892504835 0 6.6414021044 3.3457701752 0 2.485711609 5.2962123554 0 
4.5142724884 5.301683263 0 4.1386885406 0.49621789734 0 0.49621789734 2.8613114594 0 
6.4653693356 4.1675183045 0 1.7815734083 0.35375209722 0 0.35191041811 5.2192251844 0 
5.2045327576 6.6420335985 0 5.2715908019 0.34496760504 0 0.34496760504 1.7284091981 0 
1.7912623484 6.6472833477 0 6.6462479028 1.7815734083 0 6.655032395 5.2715908019 0 
6.0018111307 0.33962155199 0 6.660378448 6.0018111307 0 0.33962155199 0.99818886931 0 
0.33789389548 6.0020556849 0 4.8431738401 0.36643899333 0 0.36643899333 2.1568261599 0 
6.6695014189 4.8502181121 0 3.3194031049 6.6880752893 0 0.98302760942 6.6572105079 0 
6.0170519767 6.6571754409 0 6.6571754409 0.9829480233 0 0.9829480233 0.34282455914 0 
0.60283050123 6.6812981717 0 6.6809416725 0.60267619269 0 0.60267619269 0.31905832746 0 
6.3973238073 6.6809416725 0 5.508864916 4.3176715804 0 3.7798225257 0.35426223421 0 
0.35426223421 3.2201774743 0 6.6429380014 3.7819238204 0 0.71132486541 5.5 0 
5.4647693027 6.3109555335 0 1.5 0.71132486541 0 3.5 0.71132486541 0 
0.71132486541 3.5 0 6.2886751346 1.5 0 6.2886751346 3.5 0 
[...]
CELL_DATA 1056
FIELD FieldData 1
radiation%20flux%20density 1 1056 double
-1.6605512694e-13 -1.6605512694e-13 7.1507073925e-11 7.1524523516e-11 6.3982492323e-11 6.3982492323e-11 1.8826201485e-10 1.8826201485e-10 1.8826201485e-10 
1.8826201485e-10 1.8826201485e-10 1.8826201485e-10 1.8826201485e-10 1.8826201485e-10 1.776286489e-10 1.776286489e-10 1.7774280158e-10 1.7774280158e-10 
-1.6605512694e-13 -1.6605512694e-13 -1.6605512694e-13 -1.6605512694e-13 2.0393693254e-10 2.0391541583e-10 2.0391541583e-10 2.0393693254e-10 -1.6605512694e-13 
-1.6605512694e-13 7.1524523516e-11 7.1507073925e-11 6.3982492323e-11 6.3982492323e-11 1.8826201485e-10 1.8826201485e-10 1.8826201485e-10 1.8826201485e-10 
1.8826201485e-10 1.8826201485e-10 1.8826201485e-10 1.8826201485e-10 1.7774280158e-10 1.776286489e-10 1.7774280158e-10 1.776286489e-10 -1.6605512694e-13 
-1.6605512694e-13 -1.6605512694e-13 -1.6605512694e-13 2.0391541583e-10 2.0391541583e-10 2.0393693254e-10 2.0393693254e-10 -1.6605512694e-13 -1.6605512694e-13 
7.1524523516e-11 7.1507073925e-11 6.3982492323e-11 6.3982492323e-11 1.8826201485e-10 1.8826201485e-10 1.8826201485e-10 1.8826201485e-10 1.8826201485e-10 
1.8826201485e-10 1.8826201485e-10 1.8826201485e-10 1.776286489e-10 1.7774280158e-10 1.776286489e-10 1.7774280158e-10 -1.6605512694e-13 -1.6605512694e-13 
-1.6605512694e-13 -1.6605512694e-13 2.0393693254e-10 2.0393693254e-10 2.0391541583e-10 2.0391541583e-10 -1.6605512694e-13 -1.6605512694e-13 7.170264239e-11 
7.1671473169e-11 6.3982492323e-11 6.3982492323e-11 1.8826201485e-10 1.8826201485e-10 1.8826201485e-10 1.8826201485e-10 1.8826201485e-10 1.8826201485e-10 
1.8826201485e-10 1.8826201485e-10 1.7641120803e-10 1.7641120803e-10 1.7663163232e-10 1.7663163232e-10 -1.6605512694e-13 -1.6605512694e-13 -1.6605512694e-13 
-1.6605512694e-13 2.0390509256e-10 2.0394726532e-10 2.0394726532e-10 2.0390509256e-10 -1.6605512694e-13 -1.6605512694e-13 7.1923710391e-11 7.1658846822e-11 
6.3982492323e-11 6.3982492323e-11 1.8826201485e-10 1.8826201485e-10 1.8826201485e-10 1.8826201485e-10 1.8826201485e-10 1.8826201485e-10 1.8826201485e-10 
1.8826201485e-10 1.7473822871e-10 1.7671997721e-10 1.7473822871e-10 1.7671997721e-10 -1.6605512694e-13 -1.6605512694e-13 -1.6605512694e-13 -1.6605512694e-13 
2.0373516975e-10 2.0411823628e-10 2.0411823628e-10 2.0373516975e-10 -1.6605512694e-13 -1.6605512694e-13 7.1524523516e-11 7.1507073925e-11 6.3982492323e-11 
6.3982492323e-11 1.8826201485e-10 1.8826201485e-10 1.8826201485e-10 1.8826201485e-10 1.8826201485e-10 1.8826201485e-10 1.8826201485e-10 1.8826201485e-10 
1.776286489e-10 1.7774280158e-10 1.7774280158e-10 1.776286489e-10 -1.6605512694e-13 -1.6605512694e-13 -1.6605512694e-13 -1.6605512694e-13 2.0393693254e-10 
2.0393693254e-10 2.0391541583e-10 2.0391541583e-10 0.31528042495 0.31528042495 0.27083356192 0.27080312008 0.26395719392 0.26395719392 
0.25309075797 0.25309075797 0.25309075797 0.25309075797 0.25309075797 0.25309075797 0.25309075797 0.25309075797 0.30112288796 
0.30113197195 0.30113197195 0.30112288796 0.31528042495 0.31528042495 0.31528042495 0.31528042495 0.2990401375 0.29903842525 
0.29903842525 0.2990401375 -1.6605512694e-13 -1.6605512694e-13 7.1507073925e-11 7.1524523516e-11 6.3982492323e-11 6.3982492323e-11 1.8826201485e-10 
1.8826201485e-10 1.8826201485e-10 1.8826201485e-10 1.8826201485e-10 1.8826201485e-10 1.8826201485e-10 1.8826201485e-10 1.776286489e-10 1.7774280158e-10 
1.776286489e-10 1.7774280158e-10 -1.6605512694e-13 -1.6605512694e-13 -1.6605512694e-13 -1.6605512694e-13 2.0391541583e-10 2.0393693254e-10 2.0391541583e-10 
2.0393693254e-10 -1.6605512694e-13 -1.6605512694e-13 7.1923710391e-11 7.1658846822e-11 6.3982492323e-11 6.3982492323e-11 1.8826201485e-10 1.8826201485e-10 
1.8826201485e-10 1.8826201485e-10 1.8826201485e-10 1.8826201485e-10 1.8826201485e-10 1.8826201485e-10 1.7473822871e-10 1.7671997721e-10 1.7473822871e-10 
1.7671997721e-10 -1.6605512694e-13 -1.6605512694e-13 -1.6605512694e-13 -1.6605512694e-13 2.0373516975e-10 2.0411823628e-10 2.0373516975e-10 2.0411823628e-10 
-1.6605512694e-13 -1.6605512694e-13 7.1524523516e-11 7.1507073925e-11 6.3982492323e-11 6.3982492323e-11 1.8826201485e-10 1.8826201485e-10 1.8826201485e-10 
1.8826201485e-10 1.8826201485e-10 1.8826201485e-10 1.8826201485e-10 1.8826201485e-10 1.7774280158e-10 1.776286489e-10 1.776286489e-10 1.7774280158e-10 
-1.6605512694e-13 -1.6605512694e-13 -1.6605512694e-13 -1.6605512694e-13 2.0391541583e-10 2.0393693254e-10 2.0393693254e-10 2.0391541583e-10 -1.6605512694e-13 
-1.6605512694e-13 7.1524523516e-11 7.1507073925e-11 6.3982492323e-11 6.3982492323e-11 1.8826201485e-10 1.8826201485e-10 1.8826201485e-10 1.8826201485e-10 
1.8826201485e-10 1.8826201485e-10 1.8826201485e-10 1.8826201485e-10 1.7774280158e-10 1.776286489e-10 1.7774280158e-10 1.776286489e-10 -1.6605512694e-13 
-1.6605512694e-13 -1.6605512694e-13 -1.6605512694e-13 2.0393693254e-10 2.0391541583e-10 2.0393693254e-10 2.0391541583e-10 -1.6605512694e-13 -1.6605512694e-13 
7.1923710391e-11 7.1658846822e-11 6.3982492323e-11 6.3982492323e-11 1.8826201485e-10 1.8826201485e-10 1.8826201485e-10 1.8826201485e-10 1.8826201485e-10 
1.8826201485e-10 1.8826201485e-10 1.8826201485e-10 1.7473822871e-10 1.7473822871e-10 1.7671997721e-10 1.7671997721e-10 -1.6605512694e-13 -1.6605512694e-13 
-1.6605512694e-13 -1.6605512694e-13 2.0411823628e-10 2.0373516975e-10 2.0411823628e-10 2.0373516975e-10 1.2566370614e-09 1.2566370614e-09 1.2566370614e-09 
1.2566370614e-09 1.2566370614e-09 1.2566370614e-09 1.2566370614e-09 1.2566370614e-09 1.2566370614e-09 1.2566370614e-09 1.2566370614e-09 1.2566370614e-09 
1.2566370614e-09 1.2566370614e-09 1.2566370614e-09 1.2566370614e-09 1.2566370614e-09 1.2566370614e-09 1.2566370614e-09 1.2566370614e-09 1.2566370614e-09 
1.2566370614e-09 1.2566370614e-09 1.2566370614e-09 1.2566370614e-09 1.2043451533e-09 1.1873107276e-09 1.1873107276e-09 1.1873107276e-09 1.1868906203e-09 
1.1868906203e-09 1.1886235212e-09 1.2566370614e-09 1.2566370614e-09 1.2566370614e-09 1.2566370614e-09 1.2011724635e-09 1.2566370614e-09 1.2566370614e-09 
1.2566370614e-09 1.2566370614e-09 1.2566370614e-09 1.2566370614e-09 1.2566370614e-09 1.2566370614e-09 1.2566370614e-09 1.2566370614e-09 1.2566370614e-09 
1.2566370614e-09 1.2566370614e-09 1.2566370614e-09 1.2566370614e-09 1.2566370614e-09 1.2566370614e-09 1.2566370614e-09 1.2566370614e-09 1.2566370614e-09 
1.2566370614e-09 1.2566370614e-09 1.2566370614e-09 1.2566370614e-09 1.2566370614e-09 1.2566370614e-09 1.2566370614e-09 1.2566370614e-09 1.2566370614e-09 
1.2566370614e-09 1.2566370614e-09 1.2566370614e-09 1.2566370614e-09 1.2566370614e-09 1.2566370614e-09 1.2566370614e-09 1.2566370614e-09 1.2566370614e-09 
1.2566370614e-09 1.2566370614e-09 1.2566370614e-09 1.2566370614e-09 1.2566370614e-09 1.2566370614e-09 1.2566370614e-09 1.2566370614e-09 1.2566370614e-09 
1.2566370614e-09 1.2566370614e-09 1.2566370614e-09 1.2566370614e-09 1.2566370614e-09 1.2566370614e-09 1.2566370614e-09 1.2566370614e-09 1.2566370614e-09 
1.2566370614e-09 1.2566370614e-09 1.2566370614e-09 1.2566370614e-09 1.2566370614e-09 1.2566370614e-09 1.2566370614e-09 1.2566370614e-09 1.2566370614e-09 
1.2566370614e-09 1.2566370614e-09 1.2566370614e-09 1.2566370614e-09 1.2566370614e-09 1.2566370614e-09 1.2566370614e-09 1.1903003812e-09 1.1903003812e-09 
1.1903003812e-09 1.1895019472e-09 1.1895019472e-09 1.2566370614e-09 1.2566370614e-09 1.2566370614e-09 1.2566370614e-09 1.2566370614e-09 1.2566370614e-09 
1.2566370614e-09 1.2566370614e-09 1.2566370614e-09 1.2566370614e-09 1.2566370614e-09 1.2566370614e-09 1.2566370614e-09 1.2566370614e-09 1.2566370614e-09 
1.2566370614e-09 1.2566370614e-09 1.2566370614e-09 1.2566370614e-09 1.2566370614e-09 1.2566370614e-09 1.2566370614e-09 1.2566370614e-09 1.2566370614e-09 
1.2566370614e-09 1.2566370614e-09 1.2566370614e-09 1.2566370614e-09 1.2566370614e-09 1.2566370614e-09 1.2566370614e-09 1.2566370614e-09 1.2566370614e-09 
1.2566370614e-09 1.2566370614e-09 1.2566370614e-09 1.2566370614e-09 1.2566370614e-09 1.2566370614e-09 1.2566370614e-09 1.2566370614e-09 1.2566370614e-09 
1.2566370614e-09 1.2566370614e-09 9.4229083302e-10 1.2566370614e-09 9.4634943958e-10 1.1253346922e-09 1.2566370614e-09 1.1270524495e-09 1.2566370614e-09 
1.2566370614e-09 1.2566370614e-09 1.2566370614e-09 1.2566370614e-09 1.2566370614e-09 1.2566370614e-09 1.2566370614e-09 1.2566370614e-09 1.2566370614e-09 
1.2566370614e-09 1.2566370614e-09 1.2566370614e-09 1.2566370614e-09 1.2566370614e-09 1.2566370614e-09 1.2566370614e-09 1.2566370614e-09 1.2566370614e-09 
1.2566370614e-09 1.2566370614e-09 1.2566370614e-09 1.2566370614e-09 1.2566370614e-09 1.2566370614e-09 1.2566370614e-09 1.2566370614e-09 1.2566370614e-09 
1.2566370614e-09 1.2566370614e-09 1.2566370614e-09 1.2566370614e-09 1.2566370614e-09 1.2566370614e-09 1.2566370614e-09 1.2566370614e-09 1.2566370614e-09 
1.2566370614e-09 1.2566370614e-09 1.2566370614e-09 1.2566370614e-09 1.2566370614e-09 1.2566370614e-09 1.2566370614e-09 1.2566370614e-09 1.2566370614e-09 
1.2566370614e-09 1.2566370614e-09 1.2566370614e-09 1.1877599974e-09 1.1877599974e-09 1.1877599974e-09 1.2566370614e-09 1.2566370614e-09 1.2566370614e-09 
1.2566370614e-09 1.2566370614e-09 1.2566370614e-09 1.2566370614e-09 1.2566370614e-09 1.2566370614e-09 1.2566370614e-09 1.2566370614e-09 1.2566370614e-09 
1.2566370614e-09 1.2566370614e-09 1.2566370614e-09 1.2566370614e-09 1.2566370614e-09 1.2566370614e-09 1.2566370614e-09 1.2566370614e-09 1.2566370614e-09 
1.2566370614e-09 1.2566370614e-09 1.2566370614e-09 1.2566370614e-09 1.2566370614e-09 1.2566370614e-09 1.2566370614e-09 1.2566370614e-09 1.1892963855e-09 
1.2566370614e-09 1.2566370614e-09 1.2566370614e-09 1.2566370614e-09 1.2566370614e-09 1.2566370614e-09 1.2566370614e-09 1.2566370614e-09 1.2566370614e-09 
1.2566370614e-09 1.2566370614e-09 1.2566370614e-09 1.2566370614e-09 1.2566370614e-09 1.2566370614e-09 1.2566370614e-09 1.2566370614e-09 1.2566370614e-09 
1.2566370614e-09 1.2566370614e-09 1.2566370614e-09 1.2566370614e-09 1.2566370614e-09 1.2566370614e-09 1.2566370614e-09 1.2566370614e-09 1.2566370614e-09 
1.2566370614e-09 1.2566370614e-09 1.2566370614e-09 1.2566370614e-09 1.2566370614e-09 1.2566370614e-09 1.2566370614e-09 1.2566370614e-09 1.2566370614e-09 
1.2566370614e-09 1.2566370614e-09 1.2566370614e-09 1.2566370614e-09 1.2566370614e-09 9.365538915e-10 9.4756805884e-10 9.7109638174e-10 9.7109638174e-10 
9.542829331e-10 9.4756805884e-10 9.4756805884e-10 9.4756805884e-10 9.542829331e-10 9.542829331e-10 9.542829331e-10 9.5771701369e-10 9.7109638174e-10 
9.542829331e-10 0.042344988045 9.7109638174e-10 9.4380702143e-10 1.1298291699e-09 9.7109638174e-10 9.4756805884e-10 9.6116127993e-10 9.5201101438e-10 
1.2566370614e-09 1.2566370614e-09 9.5069424849e-10 9.3546214941e-10 9.3608281761e-10 9.512353385e-10 1.2566370614e-09 1.2566370614e-09 1.2566370614e-09 
1.2566370614e-09 1.1939863227e-09 1.194868209e-09 1.2566370614e-09 1.2566370614e-09 1.2566370614e-09 1.2566370614e-09 1.2566370614e-09 1.2566370614e-09 
1.2566370614e-09 1.2566370614e-09 1.2566370614e-09 1.2566370614e-09 1.1919375688e-09 1.1989399677e-09 1.1989399677e-09 1.1989399677e-09 1.2566370614e-09 
1.2566370614e-09 1.1983959185e-09 1.1983959185e-09 1.1825079922e-09 1.2566370614e-09 1.2566370614e-09 1.2566370614e-09 1.2566370614e-09 1.2566370614e-09 
1.2566370614e-09 1.2566370614e-09 1.2566370614e-09 9.2912837713e-10 9.2021985496e-10 9.2531591446e-10 9.2912837713e-10 9.2021985496e-10 9.2021985496e-10 
9.2912837713e-10 9.206574677e-10 9.2021985496e-10 9.2912837713e-10 9.2021985496e-10 9.2912837713e-10 1.2566370614e-09 9.531286766e-10 9.365538915e-10 
9.5684219234e-10 9.5684219234e-10 9.365538915e-10 9.4056123179e-10 9.365538915e-10 9.4989638658e-10 9.365538915e-10 9.4989638658e-10 9.2894474001e-10 
9.4056123179e-10 9.4056123179e-10 9.365538915e-10 9.5684219234e-10 9.365538915e-10 9.5425030747e-10 9.365538915e-10 9.4989638658e-10 9.4564844813e-10 
9.365538915e-10 9.365538915e-10 9.365538915e-10 9.365538915e-10 9.365538915e-10 9.4564844813e-10 9.4989638658e-10 9.2534885843e-10 9.365538915e-10 
9.365538915e-10 9.4564844813e-10 9.5382549911e-10 9.365538915e-10 1.2566370614e-09 1.2566370614e-09 1.2566370614e-09 1.1863065802e-09 1.2566370614e-09 
1.1875198363e-09 1.1887804979e-09 1.1887804979e-09 1.1887804979e-09 1.1883451838e-09 1.1883451838e-09 1.2566370614e-09 1.2566370614e-09 1.2566370614e-09 
1.2566370614e-09 1.2566370614e-09 1.2566370614e-09 1.2566370614e-09 1.2566370614e-09 1.2566370614e-09 1.2566370614e-09 1.2566370614e-09 1.2566370614e-09 
1.2566370614e-09 1.2566370614e-09 1.2566370614e-09 1.2011131812e-09 1.2011131812e-09 1.2011131812e-09 1.2010617608e-09 1.2566370614e-09 1.2566370614e-09 
1.2566370614e-09 1.2566370614e-09 9.2170341646e-10 9.2062804295e-10 1.2566370614e-09 1.2566370614e-09 1.2566370614e-09 1.1337557556e-09 1.1234842081e-09 
1.1210272929e-09 1.1150772071e-09 1.1150772071e-09 1.1168574195e-09 1.1238564591e-09 1.1216165606e-09 1.1312719228e-09 1.1216165606e-09 1.1312719228e-09 
1.1234239499e-09 1.1150772071e-09 1.1238564591e-09 1.1150772071e-09 1.1150772071e-09 1.1238564591e-09 1.1168574195e-09 1.1150772071e-09 1.1168574195e-09 
1.1312719228e-09 1.1342082724e-09 1.2566370614e-09 1.1074400273e-09 1.1074400273e-09 1.1291004258e-09 1.1291004258e-09 1.1211684932e-09 1.1138879234e-09 
1.1074400273e-09 1.1074400273e-09 1.1291004258e-09 1.1291004258e-09 1.1291004258e-09 1.1074400273e-09 1.2566370614e-09 1.2566370614e-09 1.2566370614e-09 
1.2566370614e-09 1.2566370614e-09 1.2566370614e-09 1.2566370614e-09 1.2566370614e-09 1.2566370614e-09 1.2566370614e-09 9.1116703999e-10 1.2566370614e-09 
1.2566370614e-09 1.2566370614e-09 1.2566370614e-09 1.2566370614e-09 1.2566370614e-09 1.2566370614e-09 1.2566370614e-09 1.2566370614e-09 1.2566370614e-09 
1.2566370614e-09 1.2566370614e-09 1.2566370614e-09 1.2566370614e-09 1.2566370614e-09 1.2566370614e-09 1.2566370614e-09 1.2566370614e-09 1.2566370614e-09 
7.7427566823e-10 0.010008914904 7.7427566823e-10 7.7427566823e-10 7.7427566823e-10 7.7427566823e-10 7.7427566823e-10 7.7427566823e-10 7.7427566823e-10 
7.7427566823e-10 0.051809581046 7.7427566823e-10 7.7427566823e-10 7.7427566823e-10 7.7427566823e-10 7.7427566823e-10 7.7427566823e-10 7.7427566823e-10 
7.7427566823e-10 0.051809581046 7.7427566823e-10 7.7427566823e-10 0.010008914904 7.7427566823e-10 7.7167382466e-10 7.7167382466e-10 7.7167382466e-10 
7.7167382466e-10 7.6588326282e-10 7.6588326282e-10 7.6560698788e-10 7.6560698788e-10 1.2566370614e-09 1.1057363548e-09 1.1047433779e-09 1.2566370614e-09 
1.2566370614e-09 1.2566370614e-09 1.2566370614e-09 1.2566370614e-09 1.2566370614e-09 1.2566370614e-09 1.2566370614e-09 1.2566370614e-09 1.2566370614e-09 
1.0751064689e-09 1.2566370614e-09 1.2566370614e-09 1.2566370614e-09 1.0777547765e-09 1.2566370614e-09 1.2566370614e-09 1.2566370614e-09 1.2566370614e-09 
1.0667884716e-09 1.1400809147e-09 1.0674181484e-09 1.2566370614e-09 1.2566370614e-09 1.2566370614e-09 1.2566370614e-09 1.0697083211e-09 8.7799369749e-10 
1.2566370614e-09 1.2566370614e-09 1.2566370614e-09 1.0751803977e-09 1.0751803977e-09 1.0682586277e-09 1.0751803977e-09 1.0682586277e-09 1.0751803977e-09 
1.069118151e-09 1.0682586277e-09 1.0682586277e-09 1.0682586277e-09 1.0751803977e-09 1.0724536587e-09 1.2566370614e-09 1.2566370614e-09 1.2566370614e-09 
1.2566370614e-09 1.0906437042e-09 1.07571345e-09 1.0869870927e-09 0.013500316818 1.0869870927e-09 1.0869870927e-09 1.0869870927e-09 1.0869870927e-09 
1.0869870927e-09 1.0869870927e-09 0.013500316818 1.0869870927e-09 1.0869870927e-09 1.0869870927e-09 1.2566370614e-09 1.2566370614e-09 1.2566370614e-09 
1.2566370614e-09 1.2566370614e-09 1.2566370614e-09 1.2566370614e-09 1.2566370614e-09 1.1519168456e-09 1.1637144985e-09 1.2566370614e-09 1.2566370614e-09 
1.2566370614e-09 1.2566370614e-09 1.2566370614e-09 1.2566370614e-09 1.2566370614e-09 1.2566370614e-09 1.2566370614e-09 1.2566370614e-09 1.2566370614e-09 
1.2566370614e-09 1.2566370614e-09 1.2566370614e-09 1.2566370614e-09 1.2566370614e-09 1.2566370614e-09 1.2566370614e-09 1.2566370614e-09 1.2566370614e-09 
1.2566370614e-09 1.2566370614e-09 1.2566370614e-09 1.2566370614e-09 1.2566370614e-09 1.2566370614e-09 1.2566370614e-09 1.2566370614e-09 1.2566370614e-09 
1.2566370614e-09 1.2566370614e-09 1.2566370614e-09 1.2566370614e-09 1.2566370614e-09 1.2566370614e-09 1.2566370614e-09 1.2566370614e-09 1.2566370614e-09 
1.2566370614e-09 1.2566370614e-09 1.2566370614e-09 1.2566370614e-09 1.2566370614e-09 1.0582945275e-09 1.059570013e-09 1.2566370614e-09 1.2566370614e-09 
1.2566370614e-09 1.2566370614e-09 1.2566370614e-09 1.2566370614e-09 1.2566370614e-09 1.2566370614e-09 1.2566370614e-09 1.2566370614e-09 1.2566370614e-09 
1.2566370614e-09 1.2566370614e-09 1.2566370614e-09 1.2566370614e-09 1.2566370614e-09 1.2566370614e-09 1.2566370614e-09 1.2566370614e-09 0.04412193063 
9.4312216401e-10 9.0208941662e-10 9.0208941662e-10 7.7167382466e-10 7.7167382466e-10 7.7167382466e-10 0.052110652763 0.010079016239 7.7167382466e-10 
0.010079016239 0.052110652763 1.079839374e-09 0.014051573391 0.014051573391 1.079839374e-09 1.2566370614e-09 1.2566370614e-09 1.2566370614e-09 
1.2566370614e-09 1.0525659138e-09 1.052523741e-09 1.052523741e-09 1.0525659138e-09 1.2566370614e-09 1.2566370614e-09 9.415238954e-10 9.413413485e-10 
0.051323232282 9.0208941662e-10 7.7167382466e-10 7.7167382466e-10 0.052110652763 0.010079016239 0.010079016239 7.7167382466e-10 7.7167382466e-10 
0.052110652763 1.0788423574e-09 1.0787282047e-09 1.0788423574e-09 1.0787282047e-09 1.2566370614e-09 1.2566370614e-09 1.2566370614e-09 1.2566370614e-09 
0.01624200095 0.016240288704 1.0525340738e-09 1.0525555905e-09 1.2566370614e-09 1.2566370614e-09 9.4617643041e-10 0.04420438731 9.0208941662e-10 
9.0208941662e-10 7.7167382466e-10 0.010079016239 7.7167382466e-10 0.052110652763 7.7167382466e-10 0.052110652763 7.7167382466e-10 0.010079016239 
0.014076144462 1.0817327776e-09 1.0817327776e-09 0.014076144462 1.2566370614e-09 1.2566370614e-09 1.2566370614e-09 1.2566370614e-09 1.0527358366e-09 
1.05235277e-09 1.05235277e-09 1.0527358366e-09 
POINT_DATA 565
FIELD FieldData 1
radiation%20flux%20density 1 565 double
1.2566370614e-09 1.2566370614e-09 1.2566370614e-09 1.2566370614e-09 8.4536844349e-10 7.7840416636e-10 4.8126884154e-10 8.4216145322e-10 4.8126884154e-10 
8.4216145322e-10 8.4536844349e-10 7.7840416636e-10 4.8061838065e-10 8.4291018012e-10 7.7824347362e-10 4.8061838065e-10 4.8061838065e-10 8.4291018012e-10 
7.71336076e-10 4.7996791976e-10 4.785202793e-10 8.4337133244e-10 0.078773710159 0.078773710159 8.4033008747e-10 4.7910167145e-10 4.8061838065e-10 
8.4291018012e-10 7.7824347362e-10 4.8061838065e-10 7.728689402e-10 8.4674873189e-10 7.7840416636e-10 8.2504420445e-10 8.4536844349e-10 7.7090579158e-10 
0.078820106791 0.078820106791 1.2566370614e-09 1.2566370614e-09 1.2566370614e-09 1.2566370614e-09 1.2566370614e-09 1.2566370614e-09 1.2566370614e-09 
1.2566370614e-09 1.2566370614e-09 1.2566370614e-09 1.2566370614e-09 1.2566370614e-09 1.2566370614e-09 1.2566370614e-09 1.2566370614e-09 1.2566370614e-09 
1.2566370614e-09 1.2566370614e-09 1.2566370614e-09 1.2566370614e-09 1.2566370614e-09 1.2566370614e-09 1.2566370614e-09 1.2566370614e-09 1.2566370614e-09 
1.2566370614e-09 1.2566370614e-09 1.2566370614e-09 1.2566370614e-09 1.2566370614e-09 1.2566370614e-09 1.2566370614e-09 1.2566370614e-09 1.2566370614e-09 
1.2566370614e-09 1.2566370614e-09 1.2566370614e-09 1.2566370614e-09 1.2566370614e-09 1.2566370614e-09 1.2566370614e-09 1.2566370614e-09 1.2566370614e-09 
1.2566370614e-09 1.2566370614e-09 1.2566370614e-09 1.2566370614e-09 1.2566370614e-09 1.2566370614e-09 1.2566370614e-09 1.2566370614e-09 1.2566370614e-09 
1.2566370614e-09 1.2566370614e-09 1.2566370614e-09 1.2566370614e-09 1.2566370614e-09 1.2566370614e-09 1.2566370614e-09 1.2566370614e-09 1.2566370614e-09 
1.2566370614e-09 1.2566370614e-09 1.2566370614e-09 1.2566370614e-09 1.2566370614e-09 1.2566370614e-09 1.2566370614e-09 5.7737112694e-10 5.7406107164e-10 