# vtk DataFile Version 5.1
vtk output
ASCII
DATASET UNSTRUCTURED_GRID
POINTS 61 double
-0.6 -0.6 0 0.6 -0.6 0 0.6 0.6 0 
-0.6 0.6 0 0 0 0 -0.4 -0.6 0 
-0.2 -0.6 0 6.6613381478e-16 -0.6 0 0.2 -0.6 0 
0.4 -0.6 0 0.6 -0.4 0 0.6 -0.2 0 
0.6 6.6613381478e-16 0 0.6 0.2 0 0.6 0.4 0 
0.4 0.6 0 0.2 0.6 0 -6.6613381478e-16 0.6 0 
-0.2 0.6 0 -0.4 0.6 0 -0.6 0.4 0 
-0.6 0.2 0 -0.6 -6.6613381478e-16 0 -0.6 -0.2 0 
-0.6 -0.4 0 -0.088332399106 0.43353121176 0 -0.43353121176 -0.088332399106 0 
0.40841747107 -0.28277700638 0 0.098365396477 -0.42773865803 0 0.42773865803 0.098365396477 0 
-0.29915252614 -0.43064559099 0 0.28277700638 0.40841747107 0 -0.43064559099 0.29915252614 0 
-0.10013118828 -0.42759398766 0 -0.20781352442 -0.27458104075 0 -0.0060623725765 -0.26932681281 0 
0.19654300579 -0.27981612736 0 -0.42855941329 0.10180335451 0 -0.27474194502 0.20809221879 0 
-0.27627251382 0.017148940826 0 0.42968185474 -0.087368937613 0 0.25358983849 9.3513224001e-16 0 
0.27719329831 0.19755340122 0 0.089041103842 0.43064728037 0 -9.3611199873e-16 0.25358983849 0 
0.44021646687 0.29298768454 0 0.2928192853 -0.44065360504 0 -0.4176849844 -0.28566219856 0 
-0.28567861737 0.4177134226 0 0.1 -0.12679491924 0 0.12679491924 0.1 0 
-0.10384694829 0.12210748587 0 -0.12288196948 -0.10311927111 0 0.45358983849 -0.45358983849 0 
-0.45358983849 -0.45358983849 0 0.45358983849 0.45358983849 0 -0.45358983849 0.45358983849 0 
0.1476383677 0.28308824116 0 0.28288662677 -0.14773537411 0 -0.28834516088 -0.13980201577 0 
-0.13980201577 0.28834516088 0 
CELLS 97 288
OFFSETS vtktypeint64
0 3 6 9 12 15 18 21 24 
27 30 33 36 39 42 45 48 51 
54 57 60 63 66 69 72 75 78 
81 84 87 90 93 96 99 102 105 
108 111 114 117 120 123 126 129 132 
135 138 141 144 147 150 153 156 159 
162 165 168 171 174 177 180 183 186 
189 192 195 198 201 204 207 210 213 
216 219 222 225 228 231 234 237 240 
243 246 249 252 255 258 261 264 267 
270 273 276 279 282 285 288 
CONNECTIVITY vtktypeint64
38 48 32 34 47 30 42 45 31 
36 46 27 44 51 50 38 60 48 
34 59 47 39 52 51 27 58 36 
31 57 42 50 51 4 41 50 49 
51 52 4 49 52 35 6 33 30 
33 35 34 8 28 7 11 40 27 
13 29 12 18 25 17 23 26 22 
37 38 32 16 43 31 21 37 32 
33 34 30 37 39 38 11 27 10 
6 30 5 7 33 6 16 31 15 
21 32 20 25 44 43 26 39 37 
28 33 7 25 43 17 26 37 22 
28 35 33 29 41 40 12 40 11 
29 40 12 17 43 16 22 37 21 
28 36 35 29 42 41 49 50 4 
4 52 49 14 45 13 9 46 8 
19 48 18 24 47 23 28 46 36 
29 45 42 13 45 29 23 47 26 
8 46 28 18 48 25 5 54 0 
10 53 1 15 55 2 20 56 3 
0 54 24 1 53 9 2 55 14 
3 56 19 40 58 27 43 57 31 
35 52 34 39 51 38 48 60 25 
47 59 26 50 57 44 49 58 41 
36 49 35 42 50 41 14 55 45 
9 53 46 19 56 48 24 54 47 
30 54 5 27 53 10 31 55 15 
32 56 20 25 60 44 26 59 39 
41 58 40 44 57 43 46 53 27 
47 54 30 45 55 31 48 56 32 
42 57 50 36 58 49 44 60 51 
39 59 52 52 59 34 51 60 38 

CELL_TYPES 96
5
5
5
5
5
5
5
5
5
5
5
5
5
5
5
5
5
5
5
5
5
5
5
5
5
5
5
5
5
5
5
5
5
5
5
5
5
5
5
5
5
5
5
5
5
5
5
5
5
5
5
5
5
5
5
5
5
5
5
5
5
5
5
5
5
5
5
5
5
5
5
5
5
5
5
5
5
5
5
5
5
5
5
5
5
5
5
5
5
5
5
5
5
5
5
5

CELL_DATA 96
FIELD FieldData 1
radiation%20flux%20density 1 96 double
5.2299740662e-24 5.3739847147e-24 1.2876915013e-23 1.1341326851e-23 0.91042977226 2.2621186235e-18 4.9605718503e-19 0.82604315306 1.5912066839e-17 
1.6374035825e-17 1.0131078624 0.90246740872 0.99001569041 0.80091882348 1.0417172931e-38 8.228223952e-09 3.7062504529e-47 8.9648449152e-37 
5.3097671277e-46 1.3739341918e-46 2.2136584726e-48 4.5318943624e-20 6.927646739e-37 1.2913327803e-39 1.971449331e-19 5.8209493651e-09 5.2918898662e-57 
9.730429216e-62 3.7547180639e-47 3.6926753731e-57 6.3868227624e-62 2.2308100077e-17 5.2834354972e-19 2.4567168182e-38 1.0511114796e-36 1.4221672697e-38 
2.7920621999e-19 1.8851524972e-17 4.8419258827e-46 1.181683867e-36 1.4098934923e-46 2.5109522538e-48 8.3773768268e-09 3.8386268408e-08 0.98504244154 
0.99114860472 5.5437425452e-62 3.4009725163e-62 2.094040234e-58 2.1086545604e-58 8.3938411849e-20 4.354382588e-19 2.2422866459e-37 8.9500152998e-39 
1.4750794505e-38 2.267295004e-37 7.6063751257e-103 3.4846476952e-102 3.6836787027e-102 7.5373694159e-103 6.9038830299e-103 4.5741825085e-102 4.8167466853e-102 
6.8427993328e-103 1.0721937712e-17 1.0371532079e-17 0.24419090799 0.25443480891 1.6265976804e-18 2.7665131253e-19 0.47747697006 0.40676206476 
0.20818930303 0.25948909188 1.7970341537e-67 1.27240516e-67 1.5700286506e-68 1.7003332817e-68 1.531022488e-68 1.3712852608e-67 1.9406396779e-67 
1.4139156395e-68 6.9212321629e-08 7.6866938132e-09 4.8244560614e-08 7.2038951583e-08 4.9265469729e-48 3.2614765403e-49 5.6248213449e-48 3.0439402464e-49 
1.3705575759e-07 7.4118287325e-08 0.4082948249 0.30146797487 1.7337201608e-08 9.7549100633e-08 
POINT_DATA 61
FIELD FieldData 1
radiation%20flux%20density 1 61 double
7.2551290778e-103 4.0294151019e-102 4.250212694e-102 7.1900843743e-103 0.99482864976 3.2434769157e-62 3.4723909896e-39 8.1890560855e-39 4.9169315141e-39 
1.1336617468e-62 1.7639632888e-57 2.98828164e-37 3.9389462269e-37 7.4742888374e-38 1.8479201719e-62 1.2308917911e-57 2.3092155801e-37 3.5037049331e-37 
7.5576500178e-38 6.9801341139e-59 2.1289413921e-62 4.3044426095e-40 4.7405575673e-39 2.983338434e-39 7.0288485353e-59 1.1535386942e-08 1.2811156357e-09 
3.8048594132e-18 1.3962294712e-09 6.3977114045e-09 3.2858384514e-20 3.8207972545e-18 7.554028933e-21 1.3713706588e-09 0.040698488925 0.20888317518 
0.034698230921 9.7015822762e-10 0.042405818713 0.23032432506 8.0407601073e-09 0.26145310867 0.04324821122 1.2006491936e-08 0.29936695141 
7.2575189285e-20 1.3991625529e-20 1.1038769593e-19 5.5553164769e-19 0.61350410291 0.64971624055 0.62890374421 0.59339788169 9.8530939458e-49 
6.5229530807e-50 1.124964269e-48 6.0878804929e-50 0.095495435831 0.081352437424 0.060293599978 0.081658998331 
