# vtk DataFile Version 5.1
vtk output
ASCII
DATASET UNSTRUCTURED_GRID
POINTS 61 double
-0.6 -0.6 0 0.6 -0.6 0 0.6 0.6 0 
-0.6 0.6 0 0 0 0 -0.4 -0.6 0 
-0.2 -0.6 0 6.6613381478e-16 -0.6 0 0.2 -0.6 0 
0.4 -0.6 0 0.6 -0.4 0 0.6 -0.2 0 
0.6 6.6613381478e-16 0 0.6 0.2 0 0.6 0.4 0 
0.4 0.6 0 0.2 0.6 0 -6.6613381478e-16 0.6 0 
-0.2 0.6 0 -0.4 0.6 0 -0.6 0.4 0 
-0.6 0.2 0 -0.6 -6.6613381478e-16 0 -0.6 -0.2 0 
-0.6 -0.4 0 -0.088332399106 0.43353121176 0 -0.43353121176 -0.088332399106 0 
0.40841747107 -0.28277700638 0 0.098365396477 -0.42773865803 0 0.42773865803 0.098365396477 0 
-0.29915252614 -0.43064559099 0 0.28277700638 0.40841747107 0 -0.43064559099 0.29915252614 0 
-0.10013118828 -0.42759398766 0 -0.20781352442 -0.27458104075 0 -0.0060623725765 -0.26932681281 0 
0.19654300579 -0.27981612736 0 -0.42855941329 0.10180335451 0 -0.27474194502 0.20809221879 0 
-0.27627251382 0.017148940826 0 0.42968185474 -0.087368937613 0 0.25358983849 9.3513224001e-16 0 
0.27719329831 0.19755340122 0 0.089041103842 0.43064728037 0 -9.3611199873e-16 0.25358983849 0 
0.44021646687 0.29298768454 0 0.2928192853 -0.44065360504 0 -0.4176849844 -0.28566219856 0 
-0.28567861737 0.4177134226 0 0.1 -0.12679491924 0 0.12679491924 0.1 0 
-0.10384694829 0.12210748587 0 -0.12288196948 -0.10311927111 0 0.45358983849 -0.45358983849 0 
-0.45358983849 -0.45358983849 0 0.45358983849 0.45358983849 0 -0.45358983849 0.45358983849 0 
0.1476383677 0.28308824116 0 0.28288662677 -0.14773537411 0 -0.28834516088 -0.13980201577 0 
-0.13980201577 0.28834516088 0 
CELLS 97 288
OFFSETS vtktypeint64
0 3 6 9 12 15 18 21 24 
27 30 33 36 39 42 45 48 51 
54 57 60 63 66 69 72 75 78 
81 84 87 90 93 96 99 102 105 
108 111 114 117 120 123 126 129 132 
135 138 141 144 147 150 153 156 159 
162 165 168 171 174 177 180 183 186 
189 192 195 198 201 204 207 210 213 
216 219 222 225 228 231 234 237 240 
243 246 249 252 255 258 261 264 267 
270 273 276 279 282 285 288 
CONNECTIVITY vtktypeint64
38 48 32 34 47 30 42 45 31 
36 46 27 44 51 50 38 60 48 
34 59 47 39 52 51 27 58 36 
31 57 42 50 51 4 41 50 49 
51 52 4 49 52 35 6 33 30 
33 35 34 8 28 7 11 40 27 
13 29 12 18 25 17 23 26 22 
37 38 32 16 43 31 21 37 32 
33 34 30 37 39 38 11 27 10 
6 30 5 7 33 6 16 31 15 
21 32 20 25 44 43 26 39 37 
28 33 7 25 43 17 26 37 22 
28 35 33 29 41 40 12 40 11 
29 40 12 17 43 16 22 37 21 
28 36 35 29 42 41 49 50 4 
4 52 49 14 45 13 9 46 8 
19 48 18 24 47 23 28 46 36 
29 45 42 13 45 29 23 47 26 
8 46 28 18 48 25 5 54 0 
10 53 1 15 55 2 20 56 3 
0 54 24 1 53 9 2 55 14 
3 56 19 40 58 27 43 57 31 
35 52 34 39 51 38 48 60 25 
47 59 26 50 57 44 49 58 41 
36 49 35 42 50 41 14 55 45 
9 53 46 19 56 48 24 54 47 
30 54 5 27 53 10 31 55 15 
32 56 20 25 60 44 26 59 39 
41 58 40 44 57 43 46 53 27 
47 54 30 45 55 31 48 56 32 
42 57 50 36 58 49 44 60 51 
39 59 52 52 59 34 51 60 38 

CELL_TYPES 96
5
5
5
5
5
5
5
5
5
5
5
5
5
5
5
5
5
5
5
5
5
5
5
5
5
5
5
5
5
5
5
5
5
5
5
5
5
5
5
5
5
5
5
5
5
5
5
5
5
5
5
5
5
5
5
5
5
5
5
5
5
5
5
5
5
5
5
5
5
5
5
5
5
5
5
5
5
5
5
5
5
5
5
5
5
5
5
5
5
5
5
5
5
5
5
5

CELL_DATA 96
FIELD FieldData 1
radiation%20flux%20density 1 96 double
5.2299670412e-24 5.3739695314e-24 1.2876908132e-23 1.1341305666e-23 0.91042990431 2.2621228002e-18 4.9605699915e-19 0.82604083331 1.5912103373e-17 
1.6374011773e-17 1.0131098874 0.90246743857 0.99001374466 0.80091869183 1.0417132339e-38 8.2282444619e-09 3.7062559801e-47 8.9648332221e-37 
5.3097545178e-46 1.3739386831e-46 2.213662313e-48 4.5318881302e-20 6.9276502437e-37 1.291331762e-39 1.9714434569e-19 5.8209629874e-09 5.2918950188e-57 
9.730403663e-62 3.7547209723e-47 3.6926812149e-57 6.3868111957e-62 2.2308036667e-17 5.2834271518e-19 2.4567243488e-38 1.0511135628e-36 1.4221668707e-38 
2.7920599736e-19 1.8851483011e-17 4.8419142523e-46 1.1816815545e-36 1.4098981214e-46 2.5109514664e-48 8.3773403343e-09 3.8386182785e-08 0.98504044053 
0.99115033088 5.5437394339e-62 3.400973218e-62 2.0940399615e-58 2.1086561375e-58 8.3938318613e-20 4.3543694861e-19 2.2422817507e-37 8.9500189514e-39 
1.4750817345e-38 2.2672921254e-37 7.6063528872e-103 3.484648315e-102 3.683679358e-102 7.5373473791e-103 6.9038931333e-103 4.5741930481e-102 4.8167363843e-102 
6.8427826467e-103 1.0721893112e-17 1.0371502804e-17 0.244191679 0.25443598055 1.6265972186e-18 2.7665138699e-19 0.47747760737 0.40676247613 
0.20818883619 0.25948924366 1.7970333812e-67 1.2724083183e-67 1.5700266613e-68 1.7003325729e-68 1.5310138235e-68 1.3712904415e-67 1.9406355039e-67 
1.4139138335e-68 6.9212321459e-08 7.6866924255e-09 4.8244450864e-08 7.2038796359e-08 4.9265334412e-48 3.2614569198e-49 5.6248229303e-48 3.0439390774e-49 
1.3705565603e-07 7.4118493039e-08 0.40829497722 0.30146812898 1.7337255188e-08 9.7549053648e-08 
POINT_DATA 61
FIELD FieldData 1
radiation%20flux%20density 1 61 double
7.2551230102e-103 4.0294206816e-102 4.2502078711e-102 7.1900650129e-103 0.99482860087 3.243468398e-62 3.4723774589e-39 8.1890811875e-39 4.9169391274e-39 
1.1336619807e-62 1.7639650063e-57 2.9882777423e-37 3.9389385184e-37 7.47427252e-38 1.8479191347e-62 1.2308937384e-57 2.3092167484e-37 3.5037118769e-37 
7.5576404225e-38 6.9801332055e-59 2.1289375365e-62 4.3044392151e-40 4.7405562372e-39 2.9833396512e-39 7.0288537922e-59 1.1535386914e-08 1.2811154044e-09 
3.8048582609e-18 1.3962233891e-09 6.3976971341e-09 3.285828661e-20 3.8207896363e-18 7.5540185448e-21 1.3713740771e-09 0.040698617427 0.20888320394 
0.034698153114 9.70160498e-10 0.042406013987 0.23032415939 8.0407418156e-09 0.2614532075 0.043248236516 1.2006466065e-08 0.29936710502 
7.2574970919e-20 1.3991609986e-20 1.1038768002e-19 5.5553217839e-19 0.61350404118 0.64971637984 0.62890363214 0.59339763229 9.8530668825e-49 
6.5229138396e-50 1.1249645861e-48 6.0878781548e-50 0.095495563293 0.081352519698 0.060293630801 0.081659028795 
