# vtk DataFile Version 5.1
vtk output
ASCII
DATASET UNSTRUCTURED_GRID
POINTS 61 double
-0.6 -0.6 0 0.6 -0.6 0 0.6 0.6 0 
-0.6 0.6 0 0 0 0 -0.4 -0.6 0 
-0.2 -0.6 0 6.6613381478e-16 -0.6 0 0.2 -0.6 0 
0.4 -0.6 0 0.6 -0.4 0 0.6 -0.2 0 
0.6 6.6613381478e-16 0 0.6 0.2 0 0.6 0.4 0 
0.4 0.6 0 0.2 0.6 0 -6.6613381478e-16 0.6 0 
-0.2 0.6 0 -0.4 0.6 0 -0.6 0.4 0 
-0.6 0.2 0 -0.6 -6.6613381478e-16 0 -0.6 -0.2 0 
-0.6 -0.4 0 -0.088332399106 0.43353121176 0 -0.43353121176 -0.088332399106 0 
0.40841747107 -0.28277700638 0 0.098365396477 -0.42773865803 0 0.42773865803 0.098365396477 0 
-0.29915252614 -0.43064559099 0 0.28277700638 0.40841747107 0 -0.43064559099 0.29915252614 0 
-0.10013118828 -0.42759398766 0 -0.20781352442 -0.27458104075 0 -0.0060623725765 -0.26932681281 0 
0.19654300579 -0.27981612736 0 -0.42855941329 0.10180335451 0 -0.27474194502 0.20809221879 0 
-0.27627251382 0.017148940826 0 0.42968185474 -0.087368937613 0 0.25358983849 9.3513224001e-16 0 
0.27719329831 0.19755340122 0 0.089041103842 0.43064728037 0 -9.3611199873e-16 0.25358983849 0 
0.44021646687 0.29298768454 0 0.2928192853 -0.44065360504 0 -0.4176849844 -0.28566219856 0 
-0.28567861737 0.4177134226 0 0.1 -0.12679491924 0 0.12679491924 0.1 0 
-0.10384694829 0.12210748587 0 -0.12288196948 -0.10311927111 0 0.45358983849 -0.45358983849 0 
-0.45358983849 -0.45358983849 0 0.45358983849 0.45358983849 0 -0.45358983849 0.45358983849 0 
0.1476383677 0.28308824116 0 0.28288662677 -0.14773537411 0 -0.28834516088 -0.13980201577 0 
-0.13980201577 0.28834516088 0 
CELLS 97 288
OFFSETS vtktypeint64
0 3 6 9 12 15 18 21 24 
27 30 33 36 39 42 45 48 51 
54 57 60 63 66 69 72 75 78 
81 84 87 90 93 96 99 102 105 
108 111 114 117 120 123 126 129 132 
135 138 141 144 147 150 153 156 159 
162 165 168 171 174 177 180 183 186 
189 192 195 198 201 204 207 210 213 
216 219 222 225 228 231 234 237 240 
243 246 249 252 255 258 261 264 267 
270 273 276 279 282 285 288 
CONNECTIVITY vtktypeint64
38 48 32 34 47 30 42 45 31 
36 46 27 44 51 50 38 60 48 
34 59 47 39 52 51 27 58 36 
31 57 42 50 51 4 41 50 49 
51 52 4 49 52 35 6 33 30 
33 35 34 8 28 7 11 40 27 
13 29 12 18 25 17 23 26 22 
37 38 32 16 43 31 21 37 32 
33 34 30 37 39 38 11 27 10 
6 30 5 7 33 6 16 31 15 
21 32 20 25 44 43 26 39 37 
28 33 7 25 43 17 26 37 22 
28 35 33 29 41 40 12 40 11 
29 40 12 17 43 16 22 37 21 
28 36 35 29 42 41 49 50 4 
4 52 49 14 45 13 9 46 8 
19 48 18 24 47 23 28 46 36 
29 45 42 13 45 29 23 47 26 
8 46 28 18 48 25 5 54 0 
10 53 1 15 55 2 20 56 3 
0 54 24 1 53 9 2 55 14 
3 56 19 40 58 27 43 57 31 
35 52 34 39 51 38 48 60 25 
47 59 26 50 57 44 49 58 41 
36 49 35 42 50 41 14 55 45 
9 53 46 19 56 48 24 54 47 
30 54 5 27 53 10 31 55 15 
32 56 20 25 60 44 26 59 39 
41 58 40 44 57 43 46 53 27 
47 54 30 45 55 31 48 56 32 
42 57 50 36 58 49 44 60 51 
39 59 52 52 59 34 51 60 38 

CELL_TYPES 96
5
5
5
5
5
5
5
5
5
5
5
5
5
5
5
5
5
5
5
5
5
5
5
5
5
5
5
5
5
5
5
5
5
5
5
5
5
5
5
5
5
5
5
5
5
5
5
5
5
5
5
5
5
5
5
5
5
5
5
5
5
5
5
5
5
5
5
5
5
5
5
5
5
5
5
5
5
5
5
5
5
5
5
5
5
5
5
5
5
5
5
5
5
5
5
5

CELL_DATA 96
FIELD FieldData 1
radiation%20flux%20density 1 96 double
3.5871354167e-25 3.6859094624e-25 8.8320204494e-25 7.7787910048e-25 0.071466975029 1.5515437272e-19 3.402372749e-20 0.063255213965 1.0913773958e-18 
1.123062978e-18 0.091527813667 0.069469946529 0.089331699384 0.061053733683 7.144932172e-40 5.6435755095e-10 2.5420436305e-48 6.1488092089e-38 
3.641863894e-47 9.4235419472e-48 1.5183044136e-49 3.1083364021e-21 4.7515354105e-38 8.8569952594e-41 1.3521779703e-20 3.9924736456e-10 3.6296022351e-58 
6.6739082868e-63 2.575286603e-48 2.5327327527e-58 4.3805949783e-63 1.5300683111e-18 3.6238035512e-20 1.6850133101e-39 7.2093650332e-38 9.7543630571e-40 
1.915020051e-20 1.2929886847e-18 3.3209808689e-47 8.1049351259e-38 9.6701796529e-48 1.722212318e-49 5.7458765061e-10 2.6328379678e-09 0.088749071879 
0.087962909012 3.8023429893e-63 2.3326595524e-63 1.4362606377e-59 1.4462843141e-59 5.7571690825e-21 2.986584599e-20 1.5379399095e-38 6.13863787e-40 
1.0117277203e-39 1.555092646e-38 5.2170617408e-104 2.390050697e-103 2.526562115e-103 5.1697320939e-104 4.7352363541e-104 3.1373410023e-103 3.3037109571e-103 
4.6933402585e-104 7.3539642868e-19 7.1136280174e-19 0.016748569967 0.01745117874 1.1156510671e-19 1.8974964477e-20 0.032749199809 0.027899004116 
0.014279291332 0.017797842892 1.2325500616e-68 8.7271744678e-69 1.0768514923e-69 1.1662248527e-69 1.0500979395e-69 9.4053734556e-69 1.3310462407e-68 
9.6977667625e-70 4.7471357802e-09 5.2721507346e-10 3.3089986657e-09 4.9410087194e-09 3.3790207953e-49 2.236982031e-50 3.8579533289e-49 2.0877782043e-50 
9.4003824098e-09 5.0836262312e-09 0.028004133799 0.020677090286 1.1891242505e-09 6.6906992142e-09 
POINT_DATA 61
FIELD FieldData 1
radiation%20flux%20density 1 61 double
4.9761490475e-104 2.7636958496e-103 2.9151365361e-103 4.9315361762e-104 0.089392873485 2.2246364456e-63 2.3816440659e-40 5.6167110509e-40 3.372425743e-40 
7.775560932e-64 1.2098674117e-58 2.0496030707e-38 2.7016450443e-38 5.126466377e-39 1.2674517716e-63 8.4424425094e-59 1.5838451372e-38 2.4031216784e-38 
5.1836421563e-39 4.7875354593e-60 1.4601986494e-63 2.9523317589e-41 3.2514543534e-40 2.0462126238e-40 4.8209477142e-60 7.9118929698e-10 8.786917892e-11 
2.6096780034e-19 9.5764608439e-11 4.3880632819e-10 2.2536913823e-21 2.6206095184e-19 5.1811585261e-22 9.405959183e-11 0.0027914286201 0.015346932687 
0.0023798828317 6.6541227433e-11 0.0029085309717 0.01689724732 5.5149977795e-10 0.01919446658 0.0029663091541 8.235014536e-10 0.022036719721 
4.9777881986e-21 9.5965782694e-22 7.5712943655e-21 3.810283402e-20 0.049916280233 0.053108694172 0.051576717325 0.048432745355 6.7580415906e-50 
4.473964062e-51 7.7159066578e-50 4.1755564085e-51 0.0065498428301 0.0055798025017 0.0041354184005 0.0056008290475 
