# vtk DataFile Version 4.2
vtk output
ASCII
DATASET UNSTRUCTURED_GRID
POINTS 2000 double
-2.5 1 0 7.5 1 0 -2.5 0 0 
7.5 0 0 -2.48998999 1 0 -2.47997998 1 0 
-2.46996997 1 0 -2.45995996 1 0 -2.4499499499 1 0 
-2.4399399399 1 0 -2.4299299299 1 0 -2.4199199199 1 0 
-2.4099099099 1 0 -2.3998998999 1 0 -2.3898898899 1 0 
-2.3798798799 1 0 -2.3698698699 1 0 -2.3598598599 1 0 
-2.3498498498 1 0 -2.3398398398 1 0 -2.3298298298 1 0 
-2.3198198198 1 0 -2.3098098098 1 0 -2.2997997998 1 0 
-2.2897897898 1 0 -2.2797797798 1 0 -2.2697697698 1 0 
-2.2597597598 1 0 -2.2497497497 1 0 -2.2397397397 1 0 
-2.2297297297 1 0 -2.2197197197 1 0 -2.2097097097 1 0 
-2.1996996997 1 0 -2.1896896897 1 0 -2.1796796797 1 0 
-2.1696696697 1 0 -2.1596596597 1 0 -2.1496496496 1 0 
-2.1396396396 1 0 -2.1296296296 1 0 -2.1196196196 1 0 
-2.1096096096 1 0 -2.0995995996 1 0 -2.0895895896 1 0 
-2.0795795796 1 0 -2.0695695696 1 0 -2.0595595596 1 0 
-2.0495495495 1 0 -2.0395395395 1 0 -2.0295295295 1 0 
-2.0195195195 1 0 -2.0095095095 1 0 -1.9994994995 1 0 
-1.9894894895 1 0 -1.9794794795 1 0 -1.9694694695 1 0 
-1.9594594595 1 0 -1.9494494494 1 0 -1.9394394394 1 0 
-1.9294294294 1 0 -1.9194194194 1 0 -1.9094094094 1 0 
-1.8993993994 1 0 -1.8893893894 1 0 -1.8793793794 1 0 
-1.8693693694 1 0 -1.8593593594 1 0 -1.8493493493 1 0 
-1.8393393393 1 0 -1.8293293293 1 0 -1.8193193193 1 0 
-1.8093093093 1 0 -1.7992992993 1 0 -1.7892892893 1 0 
-1.7792792793 1 0 -1.7692692693 1 0 -1.7592592593 1 0 
-1.7492492492 1 0 -1.7392392392 1 0 -1.7292292292 1 0 
-1.7192192192 1 0 -1.7092092092 1 0 -1.6991991992 1 0 
-1.6891891892 1 0 -1.6791791792 1 0 -1.6691691692 1 0 
-1.6591591592 1 0 -1.6491491491 1 0 -1.6391391391 1 0 
-1.6291291291 1 0 -1.6191191191 1 0 -1.6091091091 1 0 
-1.5990990991 1 0 -1.5890890891 1 0 -1.5790790791 1 0 
-1.5690690691 1 0 -1.5590590591 1 0 -1.549049049 1 0 
-1.539039039 1 0 -1.529029029 1 0 -1.519019019 1 0 
-1.509009009 1 0 -1.498998999 1 0 -1.488988989 1 0 
-1.478978979 1 0 -1.468968969 1 0 -1.458958959 1 0 
-1.4489489489 1 0 -1.4389389389 1 0 -1.4289289289 1 0 
-1.4189189189 1 0 -1.4089089089 1 0 -1.3988988989 1 0 
-1.3888888889 1 0 -1.3788788789 1 0 -1.3688688689 1 0 
-1.3588588589 1 0 -1.3488488488 1 0 -1.3388388388 1 0 
-1.3288288288 1 0 -1.3188188188 1 0 -1.3088088088 1 0 
-1.2987987988 1 0 -1.2887887888 1 0 -1.2787787788 1 0 
-1.2687687688 1 0 -1.2587587588 1 0 -1.2487487487 1 0 
-1.2387387387 1 0 -1.2287287287 1 0 -1.2187187187 1 0 
-1.2087087087 1 0 -1.1986986987 1 0 -1.1886886887 1 0 
-1.1786786787 1 0 -1.1686686687 1 0 -1.1586586587 1 0 
-1.1486486486 1 0 -1.1386386386 1 0 -1.1286286286 1 0 
-1.1186186186 1 0 -1.1086086086 1 0 -1.0985985986 1 0 
-1.0885885886 1 0 -1.0785785786 1 0 -1.0685685686 1 0 
-1.0585585586 1 0 -1.0485485485 1 0 -1.0385385385 1 0 
-1.0285285285 1 0 -1.0185185185 1 0 -1.0085085085 1 0 
-0.9984984985 1 0 -0.98848848849 1 0 -0.97847847848 1 0 
-0.96846846847 1 0 -0.95845845846 1 0 -0.94844844845 1 0 
-0.93843843844 1 0 -0.92842842843 1 0 -0.91841841842 1 0 
-0.90840840841 1 0 -0.8983983984 1 0 -0.88838838839 1 0 
-0.87837837838 1 0 -0.86836836837 1 0 -0.85835835836 1 0 
-0.84834834835 1 0 -0.83833833834 1 0 -0.82832832833 1 0 
-0.81831831832 1 0 -0.80830830831 1 0 -0.7982982983 1 0 
-0.78828828829 1 0 -0.77827827828 1 0 -0.76826826827 1 0 
-0.75825825826 1 0 -0.74824824825 1 0 -0.73823823824 1 0 
-0.72822822823 1 0 -0.71821821822 1 0 -0.70820820821 1 0 
-0.6981981982 1 0 -0.68818818819 1 0 -0.67817817818 1 0 
-0.66816816817 1 0 -0.65815815816 1 0 -0.64814814815 1 0 
-0.63813813814 1 0 -0.62812812813 1 0 -0.61811811812 1 0 
-0.60810810811 1 0 -0.5980980981 1 0 -0.58808808809 1 0 
-0.57807807808 1 0 -0.56806806807 1 0 -0.55805805806 1 0 
-0.54804804805 1 0 -0.53803803804 1 0 -0.52802802803 1 0 
-0.51801801802 1 0 -0.50800800801 1 0 -0.497997998 1 0 
-0.48798798799 1 0 -0.47797797798 1 0 -0.46796796797 1 0 
-0.45795795796 1 0 -0.44794794795 1 0 -0.43793793794 1 0 
-0.42792792793 1 0 -0.41791791792 1 0 -0.40790790791 1 0 
-0.3978978979 1 0 -0.38788788789 1 0 -0.37787787788 1 0 
-0.36786786787 1 0 -0.35785785786 1 0 -0.34784784785 1 0 
-0.33783783784 1 0 -0.32782782783 1 0 -0.31781781782 1 0 
-0.30780780781 1 0 -0.2977977978 1 0 -0.28778778779 1 0 
-0.27777777778 1 0 -0.26776776777 1 0 -0.25775775776 1 0 
-0.24774774775 1 0 -0.23773773774 1 0 -0.22772772773 1 0 
-0.21771771772 1 0 -0.20770770771 1 0 -0.1976976977 1 0 
-0.18768768769 1 0 -0.17767767768 1 0 -0.16766766767 1 0 
-0.15765765766 1 0 -0.14764764765 1 0 -0.13763763764 1 0 
-0.12762762763 1 0 -0.11761761762 1 0 -0.10760760761 1 0 
-0.097597597602 1 0 -0.087587587592 1 0 -0.077577577582 1 0 
-0.067567567572 1 0 -0.057557557562 1 0 -0.047547547552 1 0 
-0.037537537542 1 0 -0.027527527532 1 0 -0.017517517522 1 0 
-0.007507507512 1 0 0.002502502498 1 0 0.012512512508 1 0 
0.022522522518 1 0 0.032532532528 1 0 0.042542542538 1 0 
0.052552552548 1 0 0.062562562558 1 0 0.072572572568 1 0 
0.082582582578 1 0 0.092592592588 1 0 0.1026026026 1 0 
0.11261261261 1 0 0.12262262262 1 0 0.13263263263 1 0 
0.14264264264 1 0 0.15265265265 1 0 0.16266266266 1 0 
0.17267267267 1 0 0.18268268268 1 0 0.19269269269 1 0 
0.2027027027 1 0 0.21271271271 1 0 0.22272272272 1 0 
0.23273273273 1 0 0.24274274274 1 0 0.25275275275 1 0 
0.26276276276 1 0 0.27277277277 1 0 0.28278278278 1 0 
0.29279279279 1 0 0.3028028028 1 0 0.31281281281 1 0 
0.32282282282 1 0 0.33283283283 1 0 0.34284284284 1 0 
0.35285285285 1 0 0.36286286286 1 0 0.37287287287 1 0 
0.38288288288 1 0 0.39289289289 1 0 0.4029029029 1 0 
0.41291291291 1 0 0.42292292292 1 0 0.43293293293 1 0 
0.44294294294 1 0 0.45295295295 1 0 0.46296296296 1 0 
0.47297297297 1 0 0.48298298298 1 0 0.49299299299 1 0 
0.503003003 1 0 0.51301301301 1 0 0.52302302302 1 0 
0.53303303303 1 0 0.54304304304 1 0 0.55305305305 1 0 
0.56306306306 1 0 0.57307307307 1 0 0.58308308308 1 0 
0.59309309309 1 0 0.6031031031 1 0 0.61311311311 1 0 
0.62312312312 1 0 0.63313313313 1 0 0.64314314314 1 0 
0.65315315315 1 0 0.66316316316 1 0 0.67317317317 1 0 
0.68318318318 1 0 0.69319319319 1 0 0.7032032032 1 0 
0.71321321321 1 0 0.72322322322 1 0 0.73323323323 1 0 
0.74324324324 1 0 0.75325325325 1 0 0.76326326326 1 0 
0.77327327327 1 0 0.78328328328 1 0 0.79329329329 1 0 
0.8033033033 1 0 0.81331331331 1 0 0.82332332332 1 0 
0.83333333333 1 0 0.84334334334 1 0 0.85335335335 1 0 
0.86336336336 1 0 0.87337337337 1 0 0.88338338338 1 0 
0.89339339339 1 0 0.9034034034 1 0 0.91341341341 1 0 
0.92342342342 1 0 0.93343343343 1 0 0.94344344344 1 0 
0.95345345345 1 0 0.96346346346 1 0 0.97347347347 1 0 
0.98348348348 1 0 0.99349349349 1 0 1.0035035035 1 0 
1.0135135135 1 0 1.0235235235 1 0 1.0335335335 1 0 
1.0435435435 1 0 1.0535535535 1 0 1.0635635636 1 0 
1.0735735736 1 0 1.0835835836 1 0 1.0935935936 1 0 
1.1036036036 1 0 1.1136136136 1 0 1.1236236236 1 0 
1.1336336336 1 0 1.1436436436 1 0 1.1536536536 1 0 
1.1636636637 1 0 1.1736736737 1 0 1.1836836837 1 0 
1.1936936937 1 0 1.2037037037 1 0 1.2137137137 1 0 
1.2237237237 1 0 1.2337337337 1 0 1.2437437437 1 0 
1.2537537537 1 0 1.2637637638 1 0 1.2737737738 1 0 
1.2837837838 1 0 1.2937937938 1 0 1.3038038038 1 0 
1.3138138138 1 0 1.3238238238 1 0 1.3338338338 1 0 
1.3438438438 1 0 1.3538538538 1 0 1.3638638639 1 0 
1.3738738739 1 0 1.3838838839 1 0 1.3938938939 1 0 
1.4039039039 1 0 1.4139139139 1 0 1.4239239239 1 0 
1.4339339339 1 0 1.4439439439 1 0 1.4539539539 1 0 
1.463963964 1 0 1.473973974 1 0 1.483983984 1 0 
1.493993994 1 0 1.504004004 1 0 1.514014014 1 0 
1.524024024 1 0 1.534034034 1 0 1.544044044 1 0 
1.554054054 1 0 1.5640640641 1 0 1.5740740741 1 0 
1.5840840841 1 0 1.5940940941 1 0 1.6041041041 1 0 
1.6141141141 1 0 1.6241241241 1 0 1.6341341341 1 0 
1.6441441441 1 0 1.6541541541 1 0 1.6641641642 1 0 
1.6741741742 1 0 1.6841841842 1 0 1.6941941942 1 0 
1.7042042042 1 0 1.7142142142 1 0 1.7242242242 1 0 
1.7342342342 1 0 1.7442442442 1 0 1.7542542542 1 0 
1.7642642643 1 0 1.7742742743 1 0 1.7842842843 1 0 
1.7942942943 1 0 1.8043043043 1 0 1.8143143143 1 0 
1.8243243243 1 0 1.8343343343 1 0 1.8443443443 1 0 
1.8543543543 1 0 1.8643643644 1 0 1.8743743744 1 0 
1.8843843844 1 0 1.8943943944 1 0 1.9044044044 1 0 
1.9144144144 1 0 1.9244244244 1 0 1.9344344344 1 0 
1.9444444444 1 0 1.9544544544 1 0 1.9644644645 1 0 
1.9744744745 1 0 1.9844844845 1 0 1.9944944945 1 0 
2.0045045045 1 0 2.0145145145 1 0 2.0245245245 1 0 
2.0345345345 1 0 2.0445445445 1 0 2.0545545545 1 0 
2.0645645646 1 0 2.0745745746 1 0 2.0845845846 1 0 
2.0945945946 1 0 2.1046046046 1 0 2.1146146146 1 0 
2.1246246246 1 0 2.1346346346 1 0 2.1446446446 1 0 
2.1546546546 1 0 2.1646646647 1 0 2.1746746747 1 0 
2.1846846847 1 0 2.1946946947 1 0 2.2047047047 1 0 
2.2147147147 1 0 2.2247247247 1 0 2.2347347347 1 0 
2.2447447447 1 0 2.2547547547 1 0 2.2647647648 1 0 
2.2747747748 1 0 2.2847847848 1 0 2.2947947948 1 0 
2.3048048048 1 0 2.3148148148 1 0 2.3248248248 1 0 
2.3348348348 1 0 2.3448448448 1 0 2.3548548548 1 0 
2.3648648649 1 0 2.3748748749 1 0 2.3848848849 1 0 
2.3948948949 1 0 2.4049049049 1 0 2.4149149149 1 0 
2.4249249249 1 0 2.4349349349 1 0 2.4449449449 1 0 
2.4549549549 1 0 2.464964965 1 0 2.474974975 1 0 
2.484984985 1 0 2.494994995 1 0 2.505005005 1 0 
2.515015015 1 0 2.525025025 1 0 2.535035035 1 0 
2.545045045 1 0 2.555055055 1 0 2.5650650651 1 0 
2.5750750751 1 0 2.5850850851 1 0 2.5950950951 1 0 
2.6051051051 1 0 2.6151151151 1 0 2.6251251251 1 0 
2.6351351351 1 0 2.6451451451 1 0 2.6551551551 1 0 
2.6651651652 1 0 2.6751751752 1 0 2.6851851852 1 0 
2.6951951952 1 0 2.7052052052 1 0 2.7152152152 1 0 
2.7252252252 1 0 2.7352352352 1 0 2.7452452452 1 0 
2.7552552552 1 0 2.7652652653 1 0 2.7752752753 1 0 
2.7852852853 1 0 2.7952952953 1 0 2.8053053053 1 0 
2.8153153153 1 0 2.8253253253 1 0 2.8353353353 1 0 
2.8453453453 1 0 2.8553553553 1 0 2.8653653654 1 0 
2.8753753754 1 0 2.8853853854 1 0 2.8953953954 1 0 
2.9054054054 1 0 2.9154154154 1 0 2.9254254254 1 0 
2.9354354354 1 0 2.9454454454 1 0 2.9554554554 1 0 
[...]
CELL_DATA 999
FIELD FieldData 1
flux 1 999 double
0 0.19076170961 0.32056176928 0.40938292212 0.47514685989 0.52740344 0.57116523773 0.60924718628 0.64335127245 
0.67457388478 0.70365859711 0.73113109443 0.75737581482 0.7826818792 0.8072718987 0.83132075582 0.85496825933 0.87832791599 
0.90149316056 0.92454187598 0.94753973435 0.97054270761 0.99359898198 1.0167504371 1.0400338024 1.0634815707 1.0871227272 
1.1109833365 1.1350870188 1.159455339 1.1841081278 1.2090637467 1.2343393103 1.259950871 1.2859135764 1.3122418011 
1.3389492597 1.3660491034 1.3935540024 1.4214762173 1.4498276611 1.4786199526 1.5078644628 1.5375723566 1.567754628 
1.5984221321 1.629585613 1.6612557286 1.6934430729 1.7261581952 1.7594116186 1.793213855 1.8275754202 1.8625068464 
1.898018694 1.9341215625 1.9708261003 2.0081430136 2.0460830746 2.0846571291 2.123876104 2.1637510133 2.2042929646 
2.2455131645 2.2874229246 2.3300336658 2.3733569237 2.4174043528 2.4621877309 2.5077189636 2.5540100875 2.6010732747 
2.648920836 2.6975652249 2.7470190404 2.7972950308 2.8484060968 2.9003652944 2.9531858385 3.0068811052 3.0614646355 
3.1169501377 3.1733514904 3.2306827454 3.2889581303 3.3481920514 3.4083990966 3.4695940378 3.5317918337 3.5950076325 
3.6592567746 3.7245547952 3.7909174271 3.8583606029 3.9269004583 3.9965533343 4.0673357797 4.1392645543 4.2123566309 
4.2866291986 4.3620996647 4.4387856581 4.5167050314 4.595875864 4.6763164643 4.758045373 4.8410813651 4.9254434533 
5.0111508902 5.0982231713 5.1866800378 5.2765414791 5.3678277359 5.4605593025 5.5547569304 5.6504416302 5.7476346752 
5.8463576037 5.9466322225 6.048480609 6.1519251146 6.2569883676 6.3636932761 6.4720630307 6.582121108 6.6938912728 
6.8073975821 6.9226643872 7.0397163373 7.1585783823 7.2792757762 7.4018340796 7.5262791635 7.6526372118 7.7809347251 
7.9111985232 8.0434557487 8.1777338703 8.3140606854 8.4524643242 8.592973252 8.7356162735 8.8804225353 9.0274215292 
9.1766430964 9.3281174296 9.4818750773 9.6379469467 9.7963643075 9.9571587946 10.120362412 10.286007537 10.454126921 
10.624753697 10.797921379 10.973663869 11.152015456 11.333010826 11.516685059 11.703073637 11.892212445 12.084137776 
12.278886333 12.476495236 12.67700202 12.880444645 13.086861494 13.296291379 13.508773546 13.724347677 13.943053892 
14.164932757 14.390025282 14.61837293 14.850017617 15.085001717 15.323368067 15.565159965 15.810421182 16.059195959 
16.311529012 16.567465539 16.827051216 17.090332211 17.357355177 17.628167264 17.902816116 18.181349879 18.463817201 
18.750267238 19.040749656 19.335314635 19.634012871 19.93689558 20.244014502 20.555421904 20.87117058 21.191313858 
21.515905603 21.845000214 22.178652636 22.516918355 22.859853403 23.207514363 23.559958368 23.917243107 24.279426823 
24.646568318 25.018726957 25.395962663 25.778335928 26.165907807 26.558739923 26.95689447 27.360434209 27.769422474 
28.183923173 28.604000783 29.029720358 29.461147522 29.898348477 30.341389995 30.790339423 31.245264681 31.706234258 
32.173317217 32.646583186 33.126102364 33.611945512 34.104183953 34.602889572 35.108134809 35.619992655 36.138536651 
36.663840881 37.195979969 37.73502907 38.281063869 38.834160568 39.394395885 39.961847044 40.536591764 41.118708253 
41.708275197 42.305371752 42.910077527 43.522472578 44.142637392 44.770652874 45.406600332 46.050561459 46.702618323 
47.362853342 48.031349268 48.708189169 49.393456403 50.087234601 50.78960764 51.500659614 52.220474818 52.949137707 
53.686732876 54.433345024 55.189058919 55.953959368 56.728131175 57.511659107 58.304627847 59.107121955 59.919225819 
60.741023612 61.572599236 62.414036272 63.265417922 64.126826954 64.998345634 65.880055669 66.772038132 67.674373395 
68.587141051 69.510419838 70.444287553 71.38882097 72.344095745 73.310186324 74.28716584 75.275106011 76.274077033 
77.284147458 78.305384081 79.337851813 80.381613546 81.436730019 82.503259676 83.58125851 84.67077991 85.771874496 
86.884589946 88.008970818 89.145058362 90.292890324 91.45250074 92.623919728 93.807173257 95.002282921 96.209265696 
97.428133681 98.658893843 99.901547734 101.15609121 102.42251412 103.70080003 104.99092584 106.2928615 107.60656963 
108.93200517 110.26911499 111.61783748 112.97810216 114.34982927 115.73292926 117.12730239 118.53283823 119.94941514 
121.3768998 122.81514662 124.26399722 125.72327982 127.1928087 128.67238349 130.16178863 131.66079262 133.16914739 
134.68658755 136.21282968 137.74757157 139.29049142 140.84124705 142.39947506 143.96478997 145.53678335 147.11502288 
148.69905145 150.28838619 151.88251748 153.48090793 155.08299137 156.68817179 158.29582224 159.90528375 161.51586419 
163.12683714 164.73744071 166.34687641 167.95430789 169.55885979 171.15961649 172.75562094 174.34587336 175.92933011 
177.50490238 179.07145505 180.62780548 182.1727223 183.70492431 185.22307931 186.72580308 188.21165833 189.67915371 
191.12674293 192.55282391 193.95573807 195.33376965 196.68514524 198.00803331 199.300544 200.56072898 201.78658156 
202.97603694 204.12697262 205.23720922 206.30451129 207.32658866 208.30109786 209.22564401 210.09778294 210.91502378 
211.67483186 212.37463203 213.01181248 213.58372897 214.08770956 214.52105987 214.88106886 215.16501517 215.37017408 
215.49382499 215.53325958 215.4857906 215.34876122 215.11955508 214.795607 214.37441426 213.85354856 213.23066855 
212.50353293 211.6700142 210.72811274 209.67597152 208.51189114 207.23434514 205.84199569 204.33370932 202.70857281 
200.96590896 199.10529222 197.12656404 195.02984776 192.81556292 190.48443883 188.03752722 185.47621387 182.80222893 
180.01765587 177.12493882 174.12688818 171.02668427 167.82787893 164.53439488 161.15052274 157.68091553 154.13058061 
150.50486901 146.80946196 143.05035477 139.2338379 135.36647537 131.4550805 127.50668913 123.52853041 119.52799531 
115.51260311 111.4899661 107.46775262 103.45364891 99.455319986 95.480369889 91.536301668 87.630477493 83.770079256 
79.962070047 76.213156894 72.529755149 68.917954874 65.383489582 61.931707654 58.567546729 55.295511324 52.119653909 
49.043559625 46.070334775 43.202599176 40.442482431 37.791624097 35.251177699 32.821818495 30.503754831 28.29674291 
26.200104727 24.212748915 22.333194203 20.559595164 18.889769898 17.32122932 15.85120765 14.476693775 13.194463086 
12.001109453 10.893076987 9.8666912695 8.9181897355 8.0437509542 7.2395225431 6.5016475104 5.8262888415 5.209652181 
4.6480064995 4.1377026633 3.6751898624 3.2570298808 2.8799092255 2.5406491533 2.2362136644 1.9637155484 1.7204205899 
1.5037500545 1.3112815882 1.140748673 0.9900387856 0.85719041058 0.74038905889 0.63796244034 0.54837493492 0.47022150133 
0.40222115356 0.34321012741 0.29213484918 0.24804480801 0.21008542279 0.17749098329 0.14957773433 0.12573716119 0.10542952413 
0.088177680176 0.073561221462 0.061210951026 0.050803709484 0.042057559454 0.034727328693 0.02860050797 0.023493495484 0.019248176203 
0.015728821754 0.012819294425 0.010420537333 0.0084483318311 0.0068313027367 0.0055091518202 0.0044311002065 0.0035545208346 0.0028437428119 
0.0022690103712 0.0018055801277 0.0014329414101 0.0011341455578 0.00089523121925 0.00070473382407 0.00055326850838 0.00043317684581 0.0003382287524 
0.0002633718903 0.00020452178432 0.00015838668541 0.00012232196393 9.4209494022e-05 7.2358101329e-05 5.5421690916e-05 4.233215634e-05 3.2244596728e-05 
2.4492742273e-05 1.8552813601e-05 1.4014321997e-05 1.0556559845e-05 7.9297382358e-06 5.9399055446e-06 4.436930684e-06 3.3049611913e-06 2.4548724221e-06 
1.8183127742e-06 1.3430235799e-06 9.8917329791e-07 7.2649590369e-07 5.3206459562e-07 3.8856560142e-07 2.8296424184e-07 2.0547757036e-07 1.4878577483e-07 
1.0742887161e-07 7.7346691805e-08 5.5529291515e-08 3.9752160516e-08 2.8376324025e-08 2.0197932718e-08 1.4335462661e-08 1.0145399403e-08 7.1594206748e-09 
5.0377496901e-09 3.5346299299e-09 2.4728552021e-09 1.7250413902e-09 1.199900381e-09 8.3221293003e-10 5.7552752276e-10 3.9686143124e-10 2.7286740073e-10 
1.8706958981e-10 1.2787697263e-10 8.7160147393e-11 5.9235066697e-11 4.0139688224e-11 2.7120780196e-11 1.8271000507e-11 1.2273074049e-11 8.2200445691e-12 
5.4893852724e-12 3.6551139138e-12 2.4266365488e-12 1.6063276218e-12 1.0602006499e-12 6.9769487155e-13 4.5778916596e-13 2.9949322576e-13 1.9535701765e-13 
1.2705465019e-13 8.2389273079e-14 5.3268242267e-14 3.4338608212e-14 2.2070526006e-14 1.4143516592e-14 9.036825773e-15 5.756881165e-15 3.6565418013e-15 
2.3156068255e-15 1.462073427e-15 9.204129508e-16 5.7770287201e-16 3.6152114292e-16 2.2556377276e-16 1.4031709416e-16 8.7027500929e-17 5.3815361192e-17 
3.317866793e-17 2.0394529863e-17 1.2498838246e-17 7.6370551683e-18 4.6524495938e-18 2.8257649536e-18 1.7111502524e-18 1.0330876191e-18 6.2184510134e-19 
3.7318353971e-19 2.2328374009e-19 1.3319417417e-19 7.9214745744e-20 4.6969795393e-20 2.7766574132e-20 1.6365003027e-20 9.6161052017e-21 5.6334029189e-21 
3.2902589866e-21 1.9159147635e-21 1.1122650349e-21 6.4376232715e-22 3.7147293388e-22 2.1370383231e-22 1.2256885662e-22 7.0085765723e-23 3.9954025946e-23 
2.2707612924e-23 1.2866540819e-23 7.2682637643e-24 4.0933349883e-24 2.2982686859e-24 1.286472148e-24 7.1791863207e-25 3.9941510083e-25 2.2153753831e-25 
1.2250192965e-25 6.7532132097e-26 3.7114967753e-26 2.0335646069e-26 1.1108010646e-26 6.0489944926e-27 3.2839598735e-27 1.7773763864e-27 9.5901862169e-28 
5.1586955893e-28 2.7664138126e-28 1.478965089e-28 7.8824529475e-29 4.1881930002e-29 2.2184669757e-29 1.171492132e-29 6.1671576823e-30 3.2366008015e-30 
1.6933657339e-30 8.8322037097e-31 4.5924369105e-31 2.3805223381e-31 1.2301424073e-31 6.3371167737e-32 3.2544705057e-32 1.6661741715e-32 8.5037600581e-33 
4.3266448726e-33 2.194523637e-33 1.1096273184e-33 5.5932081644e-34 2.8105472322e-34 1.4078810055e-34 7.0304845398e-35 3.4998376445e-35 1.7368125716e-35 
8.5921035799e-36 4.2372747263e-36 2.0831156471e-36 1.0208897562e-36 4.987490485e-37 2.4289699503e-37 1.1792288233e-37 5.7070143136e-38 2.7533017788e-38 
1.3241332396e-38 6.3480686656e-39 3.0337698543e-39 1.4452858898e-39 6.8636326598e-40 3.2492449898e-40 1.5333385469e-40 7.2130646981e-41 3.3824141594e-41 
1.5810948365e-41 7.3673657601e-42 3.422068552e-42 1.584478408e-42 7.3131430733e-43 3.364657884e-43 1.5431062107e-43 7.054524624e-44 3.2148126785e-44 
1.4603552849e-44 6.6126458232e-45 2.9847284103e-45 1.3429076034e-45 6.0227956914e-46 2.6925249564e-46 1.1998580483e-46 5.3297573515e-47 2.35988776e-47 
1.0415509029e-47 4.582197317e-48 2.0094171102e-48 8.7835142186e-49 3.827077877e-49 1.6621336346e-49 7.1955349249e-50 3.1049713584e-50 1.335513635e-50 
5.725772815e-51 2.446886319e-51 1.042284304e-51 4.4253757367e-52 1.8728563484e-52 7.9003795954e-53 3.3218454818e-53 1.3921873034e-53 5.8156930016e-54 
2.4215287069e-54 1.0049880341e-54 4.1573256789e-55 1.7141461748e-55 7.0446766322e-56 2.8857082489e-56 1.1782044741e-56 4.7947341773e-57 1.9448349321e-57 
7.8627419027e-58 3.1683785518e-58 1.2725374795e-58 5.0941680419e-59 2.0325620155e-59 8.0831544228e-60 3.2039309624e-60 1.2657539439e-60 4.9839990443e-61 
1.955995178e-61 7.6509861653e-62 2.9828093231e-62 1.159019194e-62 4.4886055306e-63 1.7325530216e-63 6.6652202983e-64 2.5556063098e-64 9.7661512463e-65 
3.7196455993e-65 1.4119745458e-65 5.3419265794e-66 2.0142494376e-66 7.5695735752e-67 2.8351166631e-67 1.0583037401e-67 3.9372057915e-68 1.4598316989e-68 
5.3945204972e-69 1.9867204995e-69 7.2921071369e-70 2.6674735186e-70 9.7247054743e-71 3.5332999625e-71 1.2794128537e-71 4.6170596699e-72 1.660516749e-72 
5.9517192663e-73 2.1259909862e-73 7.5683044209e-74 2.685049758e-74 9.4933835137e-75 3.34505309e-75 1.1746180089e-75 4.1105533165e-76 1.4335479899e-76 
4.982310912e-77 1.7256565424e-77 5.956362835e-78 2.0488466872e-78 7.0232412981e-79 2.3991853211e-79 8.1674471992e-80 2.770789e-80 9.3672775405e-81 
3.1558355108e-81 1.0595088278e-81 3.5447225844e-82 1.1818043038e-82 3.9263833891e-83 1.299935577e-83 4.2887536646e-84 1.4099985498e-84 4.6193689949e-85 
1.5080689265e-85 4.9060546964e-86 1.5904291849e-86 5.137657288e-87 1.653799452e-87 5.3047575298e-88 1.6955525899e-88 5.400302185e-89 1.7138939975e-89 
5.4200958289e-90 1.7079890652e-90 5.3631051228e-91 1.6780257192e-91 5.2315449337e-92 1.6252055674e-92 5.0307365657e-93 1.5516640897e-93 4.7687506389e-94 
1.4603272448e-94 4.4558680135e-95 1.3547179258e-95 4.1039090256e-96 1.2387301442e-96 3.7254921577e-97 1.1163911509e-97 3.3332869832e-98 9.9163171281e-99 
2.9393226737e-99 8.680825807e-100 2.5544034147e-100 7.4891121194e-101 2.1876674264e-101 6.3670768974e-102 1.8463090862e-102 5.334232144e-103 1.5354662374e-103 
4.4035925763e-104 1.2582592206e-104 3.5820105395e-105 1.0159561057e-105 2.8708596595e-106 8.0823096136e-107 2.266955839e-107 6.334790132e-108 1.763601746e-108 
4.8915380062e-109 1.351650652e-109 3.7209606067e-110 1.0205040485e-110 2.7883088606e-111 7.5898105835e-112 2.0581750819e-112 5.5602255027e-113 1.4964374898e-113 
4.0121595648e-114 1.07163921e-114 2.8514587868e-115 7.5584198442e-116 1.9958946843e-116 5.2503009433e-117 1.37584019e-117 3.5915857286e-118 9.339769317e-119 
2.4194403886e-119 6.2433796601e-120 1.6048992223e-120 4.1095676264e-121 1.0482429789e-121 2.6634365896e-122 6.7411565658e-123 1.6995548427e-123 4.2681700587e-124 
1.0677044035e-124 2.6604809011e-125 6.6033761286e-126 1.6325469072e-126 4.0202771145e-127 9.8612943723e-128 2.4093304684e-128 5.8632744193e-129 1.4212233353e-129 
3.4313067071e-130 8.2514195317e-131 1.9763620952e-131 4.7148714526e-132 1.1203028593e-132 2.6513069568e-133 6.2494279711e-134 1.4671445273e-134 3.4304774504e-135 
7.988806852e-136 1.8528982588e-136 4.2801611436e-137 9.8470044322e-138 2.2562133324e-138 5.1485475451e-139 1.170076704e-139 2.6482894608e-140 5.9694530018e-141 
1.3400407787e-141 2.9957963382e-142 6.6698140588e-143 1.4788314883e-143 3.2653030838e-144 7.1800001612e-145 1.5722363373e-145 3.4284661975e-146 7.4450360049e-147 
1.6099589941e-147 3.4668901067e-148 7.4342767644e-149 1.5874749284e-149 3.3755194128e-150 7.1472008413e-151 1.5069159577e-151 3.1637032933e-152 6.6138158859e-153 
1.3767466762e-153 2.8536287122e-154 5.8894979083e-155 1.2102979756e-155 2.4764832427e-156 5.0454897052e-157 1.0235094585e-157 2.0672677623e-158 4.1573217606e-159 
8.324118361e-160 1.6594577225e-160 3.2937685512e-161 6.5090030593e-162 1.2806366345e-162 2.5085509139e-163 4.8921632674e-164 9.4985087191e-165 1.836038453e-165 
3.5332580026e-166 6.7691088076e-167 1.2910572536e-167 2.4513912673e-168 4.6337022046e-169 8.7194109481e-170 1.633371109e-170 3.0459053575e-171 5.6542737556e-172 
1.0448674264e-172 1.9220491304e-173 3.5195057475e-174 6.4151630333e-175 1.1639583172e-175 2.1021597436e-176 3.7790911327e-177 6.7623421855e-178 1.2044527651e-178 
2.1353051011e-179 3.7679252391e-180 6.6177657455e-181 1.1568627336e-181 2.0128347089e-182 3.4856574301e-183 6.0076693824e-184 1.0305438055e-184 1.7593827709e-185 
2.9893856471e-186 5.0550508619e-187 8.5071733706e-188 1.4248047499e-188 2.3748153185e-189 3.9391525239e-190 6.5023182659e-191 1.068120062e-191 1.7460321986e-192 
2.8402633067e-193 4.5976185707e-194 7.4057492479e-195 1.1870267176e-195 1.8932197247e-196 3.004567677e-197 4.7430952776e-198 7.3110226641e-199 0 

POINT_DATA 2000
FIELD FieldData 1
flux 1 2000 double
0 0 0 0 0.095380854805 0.25566173945 0.3649723457 0.44226489101 0.50127514995 
0.54928433887 0.590206212 0.62629922936 0.65896257862 0.68911624095 0.71739484577 0.74425345463 0.77002884701 0.79497688895 
0.81929632726 0.84314450758 0.86664808766 0.88991053827 0.91301751827 0.93604080517 0.95904122098 0.9820708448 1.0051747096 
1.0283921198 1.0517576865 1.0753021489 1.0990530318 1.1230351777 1.1472711789 1.1717817334 1.1965859373 1.2217015285 
1.2471450907 1.2729322237 1.2990776888 1.3255955304 1.3524991816 1.3798015529 1.4075151098 1.4356519392 1.4642238069 
1.4932422077 1.5227184097 1.5526634923 1.5830883801 1.6140038725 1.6454206708 1.6773494007 1.709800634 1.7427849069 
1.7763127368 1.8103946376 1.8450411333 1.8802627702 1.9160701282 1.9524738314 1.989484557 2.0271130441 2.0653701018 
2.1042666166 2.1438135587 2.1840219889 2.2249030646 2.2664680446 2.3087282952 2.3516952948 2.3953806382 2.4397960419 
2.4849533473 2.5308645255 2.5775416811 2.6249970554 2.6732430305 2.7222921327 2.7721570356 2.8228505638 2.8743856956 
2.9267755665 2.9800334718 3.0341728704 3.0892073866 3.1451508141 3.2020171179 3.2598204378 3.3185750908 3.378295574 
3.4389965672 3.5006929358 3.5633997331 3.6271322035 3.6919057849 3.7577361111 3.824639015 3.8926305306 3.9617268963 
4.031944557 4.103300167 4.1758105926 4.2494929148 4.3243644316 4.4004426614 4.4777453448 4.5562904477 4.6360961642 
4.7171809186 4.799563369 4.8832624092 4.9682971717 5.0546870307 5.1424516046 5.2316107585 5.3221846075 5.4141935192 
5.5076581164 5.6025992803 5.6990381527 5.7969961395 5.8964949131 5.9975564157 6.1002028618 6.2044567411 6.3103408218 
6.4178781534 6.5270920693 6.6380061904 6.7506444275 6.8650309846 6.9811903622 7.0991473598 7.2189270793 7.3405549279 
7.4640566215 7.5894581876 7.7167859684 7.8460666241 7.977327136 8.1105948095 8.2458972779 8.3832625048 8.5227187881 
8.6642947628 8.8080194044 8.9539220322 9.1020323128 9.252380263 9.4049962534 9.559911012 9.7171556271 9.876761551 
10.038760603 10.203184975 10.370067229 10.539440309 10.711337538 10.885792624 11.062839662 11.242513141 11.424847943 
11.609879348 11.797643041 11.98817511 12.181512054 12.377690785 12.576748628 12.778723333 12.983653069 13.191576436 
13.402532463 13.616560612 13.833700785 14.053993325 14.277479019 14.504199106 14.734195273 14.967509667 15.204184892 
15.444264016 15.687790574 15.934808571 16.185362486 16.439497276 16.697258377 16.958691713 17.223843694 17.492761221 
17.76549169 18.042082998 18.32258354 18.60704222 18.895508447 19.188032146 19.484663753 19.785454225 20.090455041 
20.399718203 20.713296242 21.031242219 21.35360973 21.680452909 22.011826425 22.347785496 22.688385879 23.033683883 
23.383736365 23.738600737 24.098334965 24.46299757 24.832647637 25.20734481 25.587149296 25.972121867 26.362323865 
26.757817196 27.158664339 27.564928342 27.976672824 28.393961978 28.81686057 29.24543394 29.679748 30.119869236 
30.565864709 31.017802052 31.475749469 31.939775737 32.409950202 32.886342775 33.369023938 33.858064732 34.353536763 
34.855512191 35.364063732 35.879264653 36.401188766 36.929910425 37.46550452 38.00804647 38.557612218 39.114278227 
39.678121465 40.249219404 40.827650008 41.413491725 42.006823474 42.607724639 43.216275053 43.832554985 44.456645133 
45.088626603 45.728580895 46.376589891 47.032735832 47.697101305 48.369769218 49.050822786 49.740345502 50.43842112 
51.145133627 51.860567216 52.584806263 53.317935292 54.06003895 54.811201971 55.571509143 56.341045272 57.119895141 
57.908143477 58.705874901 59.513173887 60.330124716 61.156811424 61.993317754 62.839727097 63.696122438 64.562586294 
65.439200652 66.326046901 67.223205764 68.130757223 69.048780445 69.977353695 70.916554262 71.866458358 72.827141034 
73.798676082 74.781135925 75.774591522 76.779112245 77.79476577 78.821617947 79.859732679 80.909171783 81.969994848 
83.042259093 84.12601921 85.221327203 86.328232221 87.446780382 88.57701459 89.718974343 90.872695532 92.038210234 
93.215546492 94.404728089 95.605774309 96.818699689 98.043513762 99.280220788 100.52881947 101.78930267 103.06165708 
104.34586293 105.64189367 106.94971557 108.2692874 109.60056008 110.94347623 112.29796982 113.66396572 115.04137926 
116.43011582 117.83007031 119.24112669 120.66315747 122.09602321 123.53957192 124.99363852 126.45804426 127.9325961 
129.41708606 130.91129063 132.41497001 133.92786747 135.44970862 136.98020063 138.51903149 140.06586923 141.62036106 
143.18213252 144.75078666 146.32590312 147.90703717 149.49371882 151.08545184 152.6817127 154.28194965 155.88558158 
157.49199701 159.10055299 160.71057397 162.32135066 163.93213892 165.54215856 167.15059215 168.75658384 170.35923814 
171.95761872 173.55074715 175.13760173 176.71711624 178.28817872 179.84963027 181.40026389 182.93882331 184.46400181 