# vtk DataFile Version 4.2
vtk output
ASCII
DATASET UNSTRUCTURED_GRID
POINTS 565 double
0 0 0 7 0 0 0 7 0 
7 7 0 1 1 0 2 1 0 
2 2 0 1 2 0 5 2 0 
5 1 0 6 1 0 6 2 0 
3 2 0 3 1 0 4 1 0 
4 2 0 5 3 0 6 3 0 
6 4 0 5 4 0 5 5 0 
4 5 0 4 4 0 3 4 0 
3 5 0 2 5 0 2 4 0 
1 4 0 1 3 0 2 3 0 
2 6 0 1 6 0 1 5 0 
6 5 0 6 6 0 5 6 0 
3 3 0 4 3 0 0.38888888889 0 0 
0.77777777778 0 0 1.1666666667 0 0 1.5555555556 0 0 
1.9444444444 0 0 2.3333333333 0 0 2.7222222222 0 0 
3.1111111111 0 0 3.5 0 0 3.8888888889 0 0 
4.2777777778 0 0 4.6666666667 0 0 5.0555555556 0 0 
5.4444444444 0 0 5.8333333333 0 0 6.2222222222 0 0 
6.6111111111 0 0 0 6.6111111111 0 0 6.2222222222 0 
0 5.8333333333 0 0 5.4444444444 0 0 5.0555555556 0 
0 4.6666666667 0 0 4.2777777778 0 0 3.8888888889 0 
0 3.5 0 0 3.1111111111 0 0 2.7222222222 0 
0 2.3333333333 0 0 1.9444444444 0 0 1.5555555556 0 
0 1.1666666667 0 0 0.77777777778 0 0 0.38888888889 0 
7 0.38888888889 0 7 0.77777777778 0 7 1.1666666667 0 
7 1.5555555556 0 7 1.9444444444 0 7 2.3333333333 0 
7 2.7222222222 0 7 3.1111111111 0 7 3.5 0 
7 3.8888888889 0 7 4.2777777778 0 7 4.6666666667 0 
7 5.0555555556 0 7 5.4444444444 0 7 5.8333333333 0 
7 6.2222222222 0 7 6.6111111111 0 6.6111111111 7 0 
6.2222222222 7 0 5.8333333333 7 0 5.4444444444 7 0 
5.0555555556 7 0 4.6666666667 7 0 4.2777777778 7 0 
3.8888888889 7 0 3.5 7 0 3.1111111111 7 0 
2.7222222222 7 0 2.3333333333 7 0 1.9444444444 7 0 
1.5555555556 7 0 1.1666666667 7 0 0.77777777778 7 0 
0.38888888889 7 0 1.3333333333 1 0 1.6666666667 1 0 
2 1.3333333333 0 2 1.6666666667 0 1.6666666667 2 0 
1.3333333333 2 0 1 1.6666666667 0 1 1.3333333333 0 
5 1.6666666667 0 5 1.3333333333 0 5.3333333333 1 0 
5.6666666667 1 0 6 1.3333333333 0 6 1.6666666667 0 
5.6666666667 2 0 5.3333333333 2 0 2.3333333333 2 0 
2.6666666667 2 0 3 1.6666666667 0 3 1.3333333333 0 
3.3333333333 1 0 3.6666666667 1 0 4 1.3333333333 0 
4 1.6666666667 0 4.3333333333 2 0 4.6666666667 2 0 
5 2.3333333333 0 5 2.6666666667 0 5.3333333333 3 0 
5.6666666667 3 0 6 3.3333333333 0 6 3.6666666667 0 
5.6666666667 4 0 5.3333333333 4 0 5 4.3333333333 0 
5 4.6666666667 0 4.6666666667 5 0 4.3333333333 5 0 
4 4.6666666667 0 4 4.3333333333 0 3.6666666667 4 0 
3.3333333333 4 0 3 4.3333333333 0 3 4.6666666667 0 
2.6666666667 5 0 2.3333333333 5 0 2 4.6666666667 0 
2 4.3333333333 0 1.6666666667 4 0 1.3333333333 4 0 
1 3.6666666667 0 1 3.3333333333 0 1.3333333333 3 0 
1.6666666667 3 0 2 2.6666666667 0 2 2.3333333333 0 
2 5.3333333333 0 2 5.6666666667 0 1.6666666667 6 0 
1.3333333333 6 0 1 5.6666666667 0 1 5.3333333333 0 
1.3333333333 5 0 1.6666666667 5 0 5.3333333333 5 0 
5.6666666667 5 0 6 5.3333333333 0 6 5.6666666667 0 
5.6666666667 6 0 5.3333333333 6 0 5 5.6666666667 0 
5 5.3333333333 0 3 2.3333333333 0 3 2.6666666667 0 
3.3333333333 3 0 3.6666666667 3 0 4 2.6666666667 0 
4 2.3333333333 0 3.6666666667 2 0 3.3333333333 2 0 
2 3.3333333333 0 2 3.6666666667 0 2.3333333333 4 0 
2.6666666667 4 0 3 3.6666666667 0 3 3.3333333333 0 
2.6666666667 3 0 2.3333333333 3 0 4 3.3333333333 0 
4 3.6666666667 0 4.3333333333 4 0 4.6666666667 4 0 
5 3.6666666667 0 5 3.3333333333 0 4.6666666667 3 0 
4.3333333333 3 0 1.2951917063 1.5 0 1.7050506247 1.5 0 
1.5000403885 1.2474399183 0 1.5000403885 1.7525600817 0 1.7576802451 1.7576802451 0 
1.2423197549 1.2423197549 0 1.7576802451 1.2423197549 0 1.2423197549 1.7576802451 0 
1.5 3.7048082937 0 1.5 3.2949493753 0 1.2474399183 3.4999596115 0 
1.7525600817 3.4999596115 0 1.2423197549 3.7576802451 0 1.7576802451 3.2423197549 0 
1.7576802451 3.7576802451 0 1.2423197549 3.2423197549 0 1.7048082937 5.5 0 
1.2949493753 5.5 0 1.4999596115 5.2474399183 0 1.4999596115 5.7525600817 0 
1.2423197549 5.2423197549 0 1.7576802451 5.7576802451 0 1.7576802451 5.2423197549 0 
1.2423197549 5.7576802451 0 2.5 2.297798335 0 2.5 2.7026766338 0 
2.2474399183 2.5000791615 0 2.7525600817 2.5000791615 0 2.2423197549 2.7576802451 0 
2.7576802451 2.7576802451 0 2.2423197549 2.2423197549 0 2.7576802451 2.2423197549 0 
2.5 4.6985523849 0 2.5 4.2971333787 0 2.2474399183 4.4992809606 0 
2.7525600817 4.4992809606 0 2.7576802451 4.2423197549 0 2.2423197549 4.7576802451 0 
2.7576802451 4.7576802451 0 2.2423197549 4.2423197549 0 3.5 1.7048082937 0 
3.5 1.2949493753 0 3.2474399183 1.4999596115 0 3.7525600817 1.4999596115 0 
3.2423197549 1.2423197549 0 3.2423197549 1.7576802451 0 3.7576802451 1.2423197549 0 
3.7576802451 1.7576802451 0 3.5 3.2951917063 0 3.5 3.7050506247 0 
3.2474399183 3.5000403885 0 3.7525600817 3.5000403885 0 3.2423197549 3.2423197549 0 
3.7576802451 3.7576802451 0 3.2423197549 3.7576802451 0 3.7576802451 3.2423197549 0 
4.5 2.2951917063 0 4.5 2.7050506247 0 4.2474399183 2.5000403885 0 
4.7525600817 2.5000403885 0 4.7576802451 2.2423197549 0 4.2423197549 2.2423197549 0 
4.7576802451 2.7576802451 0 4.2423197549 2.7576802451 0 4.6985523849 4.5 0 
4.2971333787 4.5 0 4.4992809606 4.7525600817 0 4.4992809606 4.2474399183 0 
4.7576802451 4.7576802451 0 4.2423197549 4.7576802451 0 4.7576802451 4.2423197549 0 
4.2423197549 4.2423197549 0 5.2951917063 1.5 0 5.7050506247 1.5 0 
5.5000403885 1.2474399183 0 5.5000403885 1.7525600817 0 5.2423197549 1.7576802451 0 
5.7576802451 1.2423197549 0 5.2423197549 1.2423197549 0 5.7576802451 1.7576802451 0 
5.5 3.2951917063 0 5.5 3.7050506247 0 5.7525600817 3.5000403885 0 
5.2474399183 3.5000403885 0 5.7576802451 3.2423197549 0 5.2423197549 3.7576802451 0 
5.7576802451 3.7576802451 0 5.2423197549 3.2423197549 0 5.6985523849 5.5 0 
5.2971333787 5.5 0 5.4992809606 5.2474399183 0 5.4992809606 5.7525600817 0 
5.2423197549 5.2423197549 0 5.7576802451 5.2423197549 0 5.7576802451 5.7576802451 0 
5.2423197549 5.7576802451 0 3.7485855544 6.6942501976 0 2.2872656985 5.8378913721 0 
4.7119339728 5.8373697827 0 2.8759754619 6.5951459244 0 2.8162186717 5.3084308736 0 
3.186129153 5.2921568433 0 2.9979032054 5.5850721589 0 3.3402908331 5.6008010525 0 
4.1834772538 5.3076746294 0 4.7107049802 6.1677403394 0 4.4211946596 6.0016838939 0 
0.27665997492 2.5838218441 0 6.7053237048 2.42793991 0 0.29467629521 4.57206009 0 
4.4161781559 0.27665997492 0 6.663212343 4.4722222222 0 2.42793991 0.29467629521 0 
2.2918240758 6.1960938346 0 3.1734987121 5.8836777691 0 3.5136330362 5.8882723168 0 
6.6167962299 6.3741865029 0 6.3741865029 0.38320377014 0 0.38357251857 6.3760800284 0 
0.38320377014 0.6258134971 0 5.5 4.7113248654 0 2.5 1.6872666359 0 
5.8514999722 2.3378951476 0 3.6772759043 4.8414452564 0 4.3378951476 1.1485000278 0 
1.1485000278 4.6621048524 0 1.1485000278 2.6621048524 0 2.3378951476 1.1485000278 0 
5.1103344757 6.2741611014 0 0.71132486541 5.1666666667 0 6.2886751346 1.8333333333 0 
1.8333333333 0.71132486541 0 1.8899895413 6.2784546756 0 5.1666666667 0.71132486541 0 
6.2886751346 5.1666666667 0 0.71132486541 1.8333333333 0 3.8333333333 0.71132486541 0 
6.2886751346 3.8333333333 0 0.71132486541 3.1666666667 0 6.2939163714 3.1693263045 0 
3.1693263045 0.70608362863 0 0.70608362863 3.8306736955 0 6.3007298331 5.8302758913 0 
5.8302758913 0.69927016685 0 0.68791714935 5.8284678454 0 0.69927016685 1.1697241087 0 
1.1703128001 0.69343635082 0 1.1703128001 6.3065636492 0 5.8296871999 6.3065636492 0 
6.3065636492 1.1703128001 0 4.4127643558 6.3484393703 0 4.0729408297 6.1740044985 0 
5.3127333641 2.5 0 4.5 1.6872666359 0 1.6872666359 4.5 0 
1.6872666359 2.5 0 3.5 4.3127333641 0 2.5448645473 5.9628839255 0 
5.8438027206 4.298242306 0 3.341591884 6.1882059124 0 3.8079455038 5.2924572466 0 
4.0000028322 5.5805606494 0 0.80895730489 4.7699760833 0 2.2300239167 0.80895730489 0 
6.1910426951 2.2300239167 0 0.81140688702 2.7706116978 0 4.2293883022 0.81140688702 0 
6.1530370913 4.2585353481 0 2.1540193915 6.522253769 0 4.8162223334 6.4882902395 0 
4.8222111689 0.70955465736 0 6.2921473568 4.827319268 0 0.70955465736 2.1777888311 0 
6.3389745166 0.79855227087 0 0.79855227087 0.66102548337 0 6.2014477291 6.3389745166 0 
0.79902978757 6.339184919 0 2.827319268 0.70785264318 0 6.2921473568 2.827319268 0 
0.70785264318 4.172680732 0 2.984286409 6.1874521762 0 2.6004296679 5.6380503952 0 
4.3907348225 5.6293300039 0 2.4954354469 6.464014563 0 0.49511543862 4.857146981 0 
2.142853019 0.49511543862 0 6.5048845614 2.142853019 0 5.8109523545 2.6966506386 0 
3.3095189699 4.8399570492 0 1.1890476455 2.3033493614 0 2.6966506386 1.1890476455 0 
4.6966506386 1.1890476455 0 1.1890476455 4.3033493614 0 3.5 5.1333820886 0 
6.0092788027 4.6114103291 0 4.1180693191 6.5205687606 0 1.3559386168 0.35702514778 0 
5.6476385745 0.34601141574 0 0.34413339402 5.6496515319 0 0.34601141574 1.3523614255 0 
6.6539885843 5.6476385745 0 5.6440613832 6.6429748522 0 1.3559386168 6.6429748522 0 
6.6429748522 1.3559386168 0 3.691651827 6.1657024845 0 0.38131474442 4.0107495165 0 
0.35859789556 3.6542298248 0 2.9892504835 0.38131474442 0 3.3457701752 0.35859789556 0 
6.6186852556 2.9892504835 0 6.6414021044 3.3457701752 0 2.485711609 5.2962123554 0 
4.5142724884 5.301683263 0 4.1386885406 0.49621789734 0 0.49621789734 2.8613114594 0 
6.4653693356 4.1675183045 0 1.7815734083 0.35375209722 0 0.35191041811 5.2192251844 0 
5.2045327576 6.6420335985 0 5.2715908019 0.34496760504 0 0.34496760504 1.7284091981 0 
1.7912623484 6.6472833477 0 6.6462479028 1.7815734083 0 6.655032395 5.2715908019 0 
6.0018111307 0.33962155199 0 6.660378448 6.0018111307 0 0.33962155199 0.99818886931 0 
0.33789389548 6.0020556849 0 4.8431738401 0.36643899333 0 0.36643899333 2.1568261599 0 
6.6695014189 4.8502181121 0 3.3194031049 6.6880752893 0 0.98302760942 6.6572105079 0 
6.0170519767 6.6571754409 0 6.6571754409 0.9829480233 0 0.9829480233 0.34282455914 0 
0.60283050123 6.6812981717 0 6.6809416725 0.60267619269 0 0.60267619269 0.31905832746 0 
6.3973238073 6.6809416725 0 5.508864916 4.3176715804 0 3.7798225257 0.35426223421 0 
0.35426223421 3.2201774743 0 6.6429380014 3.7819238204 0 0.71132486541 5.5 0 
5.4647693027 6.3109555335 0 1.5 0.71132486541 0 3.5 0.71132486541 0 
0.71132486541 3.5 0 6.2886751346 1.5 0 6.2886751346 3.5 0 
[...]
CELL_DATA 1056
FIELD FieldData 1
radiation%20flux%20density 1 1056 double
0.50004591796 -0.77656266459 0.081232967002 0.25551144765 0.2131548258 0.1134099807 -0.19495159399 0.13331119254 0.25188245973 
-0.31643676872 -0.12726617939 -0.16308045526 0.13183534246 0.28424428061 0.28377743184 -0.42085256967 -0.23529414664 -0.18451804652 
0.18867656052 0.92113651223 -0.77676490794 0.45999541864 -0.4530093507 0.43233690831 -0.4852939059 -0.14567428232 -0.0034995253399 
0.011593499903 0.0074234022331 0.0073849821179 -0.11309217055 0.029819125738 -0.062606368592 0.010522861521 0.021900853978 0.028567321807 
0.02198724516 -0.062545125831 0.010484707994 0.028567692108 -0.0018269903056 -0.023321905234 -0.02323711066 -0.001872632317 -0.0024337158706 
-0.0023918374388 0.00016274519936 0.00026703705512 0.0098461336783 0.041627486793 0.0098481237924 0.041819095436 0.49264802481 -0.76188076885 
0.078013217126 0.25067039842 0.20864983626 0.11236061395 0.123810895 -0.16008689241 0.27858692558 -0.12650588622 0.13115528418 
-0.31001388869 0.24780106868 -0.19344880783 -0.22899689984 0.28165676275 -0.17462456126 -0.41240258377 0.45051075857 -0.76816326432 
0.18391075186 0.9017533597 -0.47571998954 0.42873957618 -0.1438085474 -0.44691342499 0.013323168999 0.00031840137456 0.037566800013 
0.028976185548 0.025689100683 -0.20058472021 -0.0091344320532 0.014444884822 0.063148504712 0.016542589536 -0.00016284641443 0.064350158494 
-0.77449028253 -0.38328074961 -0.0028512332124 0.35388090888 0.013520604652 0.030513296516 -0.0012023366091 -0.00083542968844 -0.31878654659 
0.0026683484684 0.66494982171 0.037781359974 0.077653544079 0.026968047397 0.014830967765 3.1724611485e-05 0.049672473532 0.028660232134 
0.027019131402 -0.19969662003 0.06444173477 0.063115569244 -0.34915944346 -0.75352514712 -0.0074531820184 0.014710981366 0.017741867602 
-0.0010387392924 0.3239798762 0.031071950392 -0.0099573252381 0.01339785084 -0.0011251415915 -0.00075941591622 -0.30762492908 0.002729797834 
0.026631656494 0.078180809687 0.036428104776 0.64226855211 0.00085014967079 0.00083586646623 0.027409131545 -0.0027041473341 0.0075354049805 
0.0075966905885 0.028595356858 0.010921591694 0.014263661961 -0.018384874019 0.014364794885 0.010898004706 0.028573560265 -0.018506971175 
0.0082440774099 -0.003290442462 -0.0032781001405 0.0082432819402 0.0089790656395 0.008990829244 0.0027540256324 0.0027754813364 -0.016182030563 
-0.016304826856 -0.0033378758694 -0.0034008366614 1.1127239881 1.1126472027 0.928455325 0.92892301296 0.90594606439 0.90478870392 
0.84024375943 0.83968068115 0.84131135645 0.8412229449 0.84154698044 0.84017420993 0.83974403077 0.84095846565 0.97229076779 
0.97184097422 0.97200858781 0.97212853444 1.0364806547 1.0365963553 1.0361021881 1.0362207262 0.96328284819 0.96267659634 
0.96336505469 0.962604348 0.014174135278 -0.00045616495467 0.029840545324 0.031717957409 -0.21075326184 0.025673366149 -0.0096051559647 
0.014174418997 0.016614037559 -0.00080937097065 0.063413589743 -0.81104340454 0.063134162398 -0.41804591338 0.38802005166 0.030727931991 
0.00012374290896 0.013888800347 -0.0011384719591 -0.0010194508509 -0.3405399587 0.0031271895839 0.026942989522 0.080073032227 0.70389365887 
0.037959845468 -0.00083353336773 0.015922780677 0.046459509204 0.030862902541 -0.19603706413 0.025567079274 -0.008809254665 -0.7558074121 
0.015467362546 0.061576073853 0.018160149375 -0.3448475468 -0.00084746566693 0.064842227321 -0.0081631626086 0.013673920083 0.32453971808 
0.02951023354 -0.30721671779 -0.00048095139333 0.0030169143441 -0.0017387651737 0.64217905902 0.076904824351 0.026404550982 0.037444294451 
0.51082897123 -0.79573324605 0.085395357038 0.25640809057 0.11720057819 0.21507077558 0.28475452303 -0.16840987636 -0.31615560049 
0.14193256263 -0.1299004529 0.13787413682 0.26025683866 -0.19780583071 -0.42345733977 -0.2453104546 -0.19671417859 0.29021190678 
0.19659561987 0.94731005117 -0.79177770361 0.46345857055 -0.15086821067 -0.48721830486 0.43953017298 -0.46417244933 -0.020465518892 
0.014790197546 0.00461423487 0.0041523767249 0.16034204442 0.031142733157 0.010359921418 0.028326226727 0.037118785778 0.0362602329 
0.014810061 0.014537287215 0.028626937089 0.010589676281 9.1483725438e-06 -0.015364093812 -0.01493873285 -0.00016900879618 0.041877996422 
0.041363904783 -0.0029503230986 -0.0019625849318 -0.084788784965 0.010363022737 0.0099734377046 -0.08439493371 -0.6842788056 0.4647131272 
0.16929016767 0.19568601082 0.080202520271 0.21907283296 0.11867967105 -0.15346787354 -0.17613390623 0.30724330826 0.25477803791 
0.12122327945 -0.10748019684 -0.33607329897 -0.26351199817 0.23337576243 -0.53444919566 -0.38535020964 -0.69550910573 0.26882939863 
0.39105266155 0.777578182 -0.30927843796 -0.20321934093 -0.19917559855 0.3930077017 5.7855963282e-05 5.275932444e-05 5.1414150808e-05 
4.705245124e-05 9.718772519e-05 2.9261052993e-06 9.00552512e-05 -0.00030523395142 -0.00038406880006 -0.00031519202624 -0.00027712808134 3.3100735808e-05 
0.022549730042 0.00076958771314 -0.00075604799831 0.00083623187561 0.00018986602829 0.00084282107172 0.00044341352746 0.00043658938009 0.023562485624 
0.0008152354761 0.0010582746317 0.00056859463102 0.0010385988604 0.0010036843122 -0.0024908966403 -0.00080266439247 -0.0024025750441 -0.0015543438324 
-0.0063560945597 0.0058094137983 -0.0024163417709 -0.00041168144483 0.0022712687449 0.00096114986743 0.001162836026 0.0012309134579 0.0033607004296 
-0.0024001931242 0.0082685319673 0.0051460882841 0.0021356251337 0.0096135777789 0.11717229564 0.00019962497802 -8.5600747694e-05 0.0001125507281 
1.7802842796e-06 -4.8248289573e-05 0.00010195879594 0.0032096790675 0.00022542154053 0.00024293009955 0.00021261579924 -0.0001841963641 -2.8038288066e-05 
-0.0069824210215 0.0011413280495 0.0069841474789 0.0013551469711 0.0013582105797 0.00097049441837 0.0018217372516 0.00085984631623 0.00079617412432 
0.0049159522983 -0.00051150603599 0.00052978014101 0.00013961773047 -0.00082539027777 -0.0008863866958 -0.00085173824208 -0.0015137886261 -0.0016685694977 
-0.00095382855725 -0.0016208916894 -0.0015555436212 0.00069266964482 0.0018677563125 0.0013562411715 0.14415094094 0.00061791433435 -0.00012381507135 
0.00068097162406 0.0016927367213 0.0015797107749 1.6660455892e-05 2.5581644714e-05 2.6494148577e-05 1.5908376444e-05 0.00084634417525 0.00047235525327 
0.00060624444857 0.0033262146974 0.0031844432069 0.0064431051787 0.0066040543655 0.0035908161632 0.0059926463224 0.0036371703713 0.0072009274258 
0.00014934571371 0.00013969467129 -0.00012846616174 1.2569695523e-05 -0.00011620495063 0.00040132179251 0.0011443885324 0.0012949266985 0.0013353706393 
0.0012329866175 0.0012994637037 0.0013375598265 0.0004662425067 0.0030569873004 0.0022019001973 0.0012840421742 -0.0018106553821 -0.0024379344759 
-0.0017531219316 -0.0033478375667 -0.0035864026386 -0.0032195425162 -0.001760137132 -0.0036270227054 0.0029401816772 3.4941351198e-05 2.3276766613e-05 
3.2945022188e-05 3.496498268e-05 0.0004344664362 0.00032194112204 0.00043715949553 7.6584134201e-05 2.853831619e-05 0.001563161697 -0.00014737888119 
-1.2608003479e-05 0.00019672777367 0.016777770258 0.0010905231062 9.2667784523e-05 9.7541748384e-05 0.00011006796964 0.008942380978 -7.2589327654e-05 
-0.00012482462917 -7.3287063744e-05 -0.00013627584568 0.00023832498029 0.017814322551 0.0082245835339 0.004909157742 0.00081661974898 0.0004368461807 
0.00044298283993 0.00074362842205 -0.018144822931 0.0036041920767 0.080535151043 0.0087087796668 0.010693767185 0.005873855306 0.00010882125798 
8.7562372425e-05 9.5158987737e-05 0.00065325235427 0.00067200448491 0.00082843910858 0.00050235860011 0.00060670657086 0.00088842463414 -0.0002396596568 
-0.00017225360424 -0.00025942196851 -0.00025819082586 0.00017097919413 0.00017275525188 0.0001335334344 0.00037287196644 -0.00013919426188 3.7596918992e-05 
2.0114892578e-05 2.3822887024e-05 0.00035785053841 0.00095972231991 0.0023347011319 -5.5956963884e-06 -5.6433813954e-06 -5.244137154e-06 -3.7828697901e-06 
0.00063638647857 0.00018784752773 0.00018573791316 0.0001962123224 -0.00026145822086 -0.00016476280942 -0.0001393445622 0.0025531928767 0.001869647217 
0.00020118282886 0.00021099772075 0.00021078044875 0.00020331201527 0.00033621027368 0.00033747325 0.00035725404066 0.00036883745386 -8.2415020163e-05 
-0.00010356479771 -0.00014664840699 2.609060635e-05 -0.0073160919452 -0.0062090732331 -0.011329084196 0.0013844909301 0.00087512224193 0.00072573474924 
0.0012962888977 0.0018234339537 0.0014822196731 0.0002684547678 0.00026040528947 0.00026637671394 0.00060235933335 -0.00017931164651 6.3656931141e-05 
4.1672252956e-05 7.5022398407e-05 6.9558317013e-05 7.7317986084e-05 -3.8615882812e-05 -5.7279794812e-05 -2.8824823289e-05 -3.9262081643e-05 -6.460588174e-05 
-6.5127732245e-05 -6.6535762939e-05 -3.892067286e-05 4.0154598001e-05 -2.8857697428e-06 -3.7280227819e-06 -5.2781666315e-06 -3.3724262249e-06 -0.0071445551022 
0.0020261590021 0.00010260609374 9.9341193635e-05 9.9922741769e-05 0.0036303766415 0.001473209949 0.00096999384713 -0.00025447726781 -0.0011409055243 
0.0013768300373 7.1449204241e-05 2.5255115227e-05 2.6867853204e-05 2.4660164067e-05 3.7575098311e-05 3.1859119211e-05 3.8648902973e-05 8.578252923e-05 
2.6246552655e-05 2.0698324508e-05 2.7581275623e-05 1.7094810426e-05 0.0010742414417 5.1655707189e-05 5.0128877066e-05 5.2137536419e-05 0.0011529507073 
0.00024423326899 0.0045840408362 0.0013300488555 0.0028632825272 -0.0039788573111 0.003462142643 -0.004867919915 0.0032465831237 0.23370768433 
0.0014007371939 0.0029289711673 0.23467680695 0.0012011327679 -0.0043571746592 -0.019813286397 -0.0019121857954 0.00011904935789 -0.0030527977025 
0.075919476962 -0.0035026966729 -4.8866924103e-06 8.1246722471e-05 -0.015840678079 -0.014021300275 0.07561678919 0.0022654972696 0.00020300333067 
0.079474093197 0.50972845754 -0.0016517953205 -0.0002750497974 0.0020239026447 -0.0032561465111 -0.00020713802582 0.12079260402 0.11960588886 
0.021185472816 0.0049201043613 0.015096872631 -0.00067039071744 -0.0024315362012 0.01627010733 0.00040135049783 0.00042458972157 0.0003937155219 
0.025280339834 0.048157765786 0.0495636835 0.012721187954 0.0080356208472 0.010540188043 0.021438547844 4.0862168409e-05 -1.1209472036e-05 
0.0002540141882 0.038663903839 0.038622418141 0.011436232406 0.0021925979234 0.0010652510681 0.0014939165072 0.0014587653631 0.033032508338 
0.0058556052598 0.001185234232 0.0012314647785 0.0015479030052 0.0071185476096 2.9102128466e-05 4.3005490716e-05 2.7122904932e-05 0.00021122782879 
0.0030468215796 -0.00085542893673 0.00019206514507 -0.042958919966 0.0022917392805 0.21302043058 0.0013467429449 -0.022388169649 0.0021373398833 
-0.040756227277 0.21533411904 -0.043544536146 -0.020855031657 0.0013033662617 0.0021505318586 0.01601209143 -0.052643061665 -0.064723287715 
-0.038565820734 -0.026997090903 -0.06625154029 -0.016219243561 -0.029260261219 0.025341637261 0.092828686211 0.038170649216 0.050003396948 
0.0082749506043 0.027679260225 -0.016905900853 -0.059132542241 -0.072558183378 -0.0265266496 0.0020265700998 0.038351720102 0.025496822677 
0.04693969625 0.0084581979879 0.028435599311 0.092892407508 0.045042870025 0.021281932743 0.035368321315 0.10699159453 0.054270521499 
0.048331985113 0.039782579522 0.024172685961 0.091009283394 0.02559391929 -0.00016521854646 8.9917223975e-05 0.0027215359865 0.0046757860831 
-0.00041427726387 0.0050307413152 -0.0013352527027 -0.0055504376106 -0.0017044312458 -0.00030403059821 0.003999034491 0.00013116750855 0.00011513644452 
2.6345944497e-05 0.00011913733365 0.0001178485279 0.00011708783974 0.060115546017 0.001736673757 0.03130722124 -0.0002376527442 -0.0015251285974 
0.0017212081046 0.0012554820109 0.059727607634 -0.0079187105411 -0.0057455215348 -0.0086536645077 -0.0086230921321 0.0031533083312 0.0068766815178 
0.016065364975 0.0033408082733 -0.039258608228 -0.019004927313 -0.0017383414011 0.00079233380425 0.0024047924337 0.015263737151 0.018593829162 
-0.033540318042 -0.027581798962 -0.027089710932 0.019367655629 -0.014563815416 0.0092994287731 0.0086796028162 0.019141033828 0.017332264275 
-0.016493808573 -0.015196974951 -0.015584722925 -0.0028342824613 -0.019761271939 -0.027752306741 -0.0027462268335 0.019720686309 -0.019375579812 
0.011886360116 0.0083418852561 0.032813874548 0.0018941028421 0.0019204275703 0.0085407253973 0.0020741909939 0.1561513727 0.15660819861 
0.0094464643326 0.0021692629077 0.0081989801997 0.0050540546763 0.0018781372024 0.0057493386699 0.0016825221007 0.0012933115445 0.0008529316232 
0.0012908078017 0.0012059321245 0.01245013487 1.4416760033e-06 1.5179208012e-06 1.3362648731e-06 1.4683693985e-06 -0.025103451613 0.089625980953 
0.012448134249 0.089003678879 0.00028770628763 0.00037531223573 0.0011067789321 0.007004526684 -0.0069953586424 -1.0335929339e-07 -1.3727411239e-07 
-1.4459919741e-07 -1.2802365609e-07 -1.4085426869e-07 -1.0405857182e-07 -1.1736036725e-07 -9.3929173828e-08 0.0098377995448 0.075238301919 0.075391172763 
-0.27079178086 0.33670329647 0.0046633414933 -0.2542285217 0.15987821259 0.17441701841 0.008240249394 0.0040885168754 -0.11209301034 
0.39354077291 0.48008109898 -0.26019275813 -0.12188050263 0.0053857493684 0.005336417603 0.0080165325204 0.37709312809 0.0075934263325 
0.0042474772669 0.47999321433 0.36757265354 0.0080679962148 0.33692142905 0.0078697422795 0.0057655611518 0.14280832787 0.0070296217824 
-0.1005932663 -0.2590831285 0.37678325166 0.14952986453 -0.10352384041 0.049282508177 0.0094977651355 0.0058525705312 0.0032994568782 
0.002958916737 0.01681614579 0.0054546189106 0.048935390631 -1.2590132141e-05 -1.0360023649e-05 -1.1572760412e-05 -1.1278170667e-05 0.017451738157 
0.027914852362 0.00058444159836 0.00058920696836 0.00055930601279 -0.042588991307 0.0004696928837 0.00043331370048 0.013309360582 0.00025313605754 
0.036864863761 0.001324831658 0.075774427426 1.0815362961e-06 9.7706792178e-07 1.0849313284e-06 1.2260039866e-06 0.0058500020323 -0.0021950141235 
0.00013549142104 0.00071905810135 0.00070789271572 0.080717960153 0.0038774733529 0.081246751953 0.038434033911 0.0038329577378 0.076379670787 
0.27179685998 0.041125647717 0.0030640465391 0.0029889156559 0.0030991156239 0.27235868129 0.00028874947482 0.00027520066542 0.00029782759794 
0.00044426774732 0.0035270938432 0.038520030202 0.0021493307515 0.41838447209 -0.044363410695 0.019550289006 -0.044933467218 0.0025314823817 
0.0024608957914 -0.047474648616 0.41855977908 0.0021266773302 0.0025697970792 0.021231698914 -0.00054351305897 0.00032088740519 0.00074085865351 
0.004365678467 0.00011087773274 7.5330137519e-05 -2.3454300449e-05 0.0085907189906 0.10060045137 0.1005616599 0.00087827754493 0.082235628483 
0.0079925234346 7.2513520183e-05 7.1437402956e-05 7.1621367126e-05 0.00037999561432 0.082361024368 0.00027926751329 0.0010555966074 0.0061096566918 
0.17629056044 0.0020494041149 0.0050623402966 0.0016610661822 0.0021707197268 0.0021189416335 -6.8274327867e-05 0.0060032482148 0.0016622763668 
0.0049430894866 0.00029764435149 0.17664269249 0.033904853189 -0.0097772071976 0.032034803612 0.03285900209 0.0039680603348 -0.010569141799 
0.31593866003 0.0046175449685 0.003949648057 0.31586402245 0.0042253159388 0.0044468985372 -0.0002166698862 -5.3562640375e-05 0.00029328754082 
0.00053064538971 -0.010754635835 0.033672961637 0.0037227917868 -0.012630098395 0.028513327851 0.0031542799901 0.00061313646985 0.00055043172318 
0.00061262954479 0.039424762392 0.00057065825643 -0.00040825773529 -7.8860477339e-05 0.00062811394447 0.00055353771416 0.0022128116542 0.0060641981953 
0.0042481547315 0.00026217448529 0.00026063940792 0.00026014909628 0.00080157433695 0.00030092295954 0.22592953517 0.22593476917 0.5134315633 
0.098986149961 0.21262768968 0.2126381219 0.095136859075 0.11567476355 0.11564882176 0.48016412283 0.33655137139 0.0951293778 
0.33661523025 0.48022157266 0.13081017663 0.42021481082 0.42028815218 0.13081241385 0.31618126512 0.16993275258 0.31622566858 
0.16992760616 0.27066403113 0.15807726376 0.15811095534 0.27069101755 0.26346211972 0.21419305901 0.21047234602 0.21034007997 
0.53063142048 0.092357478737 0.12077706966 0.096320827758 0.48463530748 0.33953782519 0.34018122801 0.096336761427 0.12078948744 
0.48471309887 0.16340301226 0.16340094107 0.27014988914 0.27024916449 0.32773605183 0.32763209122 0.1572297436 0.15724508073 
0.43388538887 0.43402029022 0.12393157822 0.12390523624 0.22775900958 0.22770640198 0.099682681459 0.51266311151 0.2099918434 
0.21271197889 0.11520215422 0.33730186261 0.095488413393 0.48201449052 0.095620683628 0.48215999319 0.11727440826 0.33815242795 
0.42126118402 0.1315702144 0.13171417924 0.42129194028 0.3171051247 0.31674105889 0.17119853933 0.17108770822 0.15859900393 
0.27192620878 0.27089778313 0.15889427771 
POINT_DATA 565
FIELD FieldData 1
radiation%20flux%20density 1 565 double
-1.2245642025e-07 -1.3097978233e-07 -1.2031670289e-07 -1.1097641496e-07 -0.038979538198 0.0026302041465 -0.076170957218 0.0081226985177 -0.081451801099 
0.0024222967164 -0.039690462658 0.0095290803511 0.033835310162 0.00063715542471 0.00068885937239 0.033812278634 0.034641186414 0.0059210262519 
0.0069720731911 0.034023191108 -0.070910258152 0.054713677328 0.43060689768 0.43138490284 0.053879789631 -0.071465308867 0.035319516313 
-0.0023901347877 -0.0028729620499 0.035346689997 0.0039329467073 -0.038843685165 0.0092642854841 0.0016797213531 -0.034256477698 0.013269073271 
0.4311869895 0.43042771235 -1.4386220885e-06 1.5076659243e-05 -3.209978672e-05 6.6242543031e-05 4.7462288035e-05 8.8973115335e-05 7.2297686713e-05 
3.7786575562e-05 4.9739912247e-05 3.0531645548e-06 7.7379611665e-05 6.422305126e-05 5.8931059308e-05 6.7208343981e-05 -3.4860763794e-05 1.6471187595e-05 
-1.3898410041e-06 -9.1661525975e-07 1.6203045408e-05 -5.9184530322e-05 9.8953169056e-05 4.1992870273e-05 8.8593699726e-05 7.9766717843e-05 9.9111829113e-05 
0.00016821887677 -8.4390344883e-05 9.4066613095e-05 6.3402072279e-05 6.3603084752e-05 0.00010140154565 -6.1398287871e-05 1.6010578807e-05 -7.9718448945e-07 
-8.0318272879e-07 1.5329348467e-05 -5.877248668e-05 0.00010512614726 4.1073490652e-05 8.6281415957e-05 4.8996083725e-05 -6.5643813605e-05 -0.0001155681418 
0.00015552033801 2.2182858396e-05 7.28001871e-05 6.1981809043e-05 6.7071949674e-05 -4.049411867e-05 1.2642482448e-05 -6.6754366496e-07 -1.3452986456e-06 
1.7760843249e-05 -5.2174259757e-05 0.00012766895443 0.00018092728753 0.00047075741212 0.00098066603831 0.0012707867166 0.001365613122 0.0013830345188 
0.00097778952457 0.00060231547713 0.00022566865745 8.9318475563e-05 -2.8251231684e-05 1.5335370234e-05 -1.4304314992e-06 0.061531030445 -0.032143716133 
-0.0063671265668 -0.010993957524 -0.03507710125 -0.0042492613298 -0.07929505537 0.065953207468 -0.012088213914 -0.0067653295855 -0.032721222927 
0.063398335315 0.065825112541 -0.08070158379 -0.004177891221 -0.03697959596 0.028906032119 0.0033108942304 0.0042732531648 0.0015207335158 
-0.0028223207965 -0.0027881630314 0.0015261699459 0.0042760279531 0.0030909803582 0.030273017139 0.017939534996 -0.0076031165619 0.0046922997738 
0.0013398176925 0.0071329287166 0.0071547745519 0.0012942135346 0.0043848922738 0.0024279236816 0.028728314098 0.017510665697 -0.0030789710772 
0.091661432077 0.15788296196 0.69159918215 0.69159394736 0.1586568965 0.093823477003 0.0065160050569 0.030632133373 0.0146454695 
-0.0066912902709 0.0048819250633 0.0017046260558 -0.011905934612 -0.011822432472 0.001713399638 0.0049220994471 -0.0067527052723 0.016325659465 
-0.0097440588501 -0.0056085243383 -0.030758647847 0.061272877862 0.063977417061 -0.078758298214 -0.0040155454144 -0.034844599707 -0.013696654954 
-0.0029919732829 -0.042629411695 0.04829803423 0.072322604205 -0.06757844819 -0.010618709313 -0.026242245037 0.092597867399 0.1577543194 
0.69233640676 0.69231971142 0.15777464748 0.09260342374 0.064859859902 0.064862751237 0.063474137726 0.063472009604 0.091903582048 