# vtk DataFile Version 4.2
vtk output
ASCII
DATASET UNSTRUCTURED_GRID
POINTS 565 double
0 0 0 7 0 0 0 7 0 
7 7 0 1 1 0 2 1 0 
2 2 0 1 2 0 5 2 0 
5 1 0 6 1 0 6 2 0 
3 2 0 3 1 0 4 1 0 
4 2 0 5 3 0 6 3 0 
6 4 0 5 4 0 5 5 0 
4 5 0 4 4 0 3 4 0 
3 5 0 2 5 0 2 4 0 
1 4 0 1 3 0 2 3 0 
2 6 0 1 6 0 1 5 0 
6 5 0 6 6 0 5 6 0 
3 3 0 4 3 0 0.38888888889 0 0 
0.77777777778 0 0 1.1666666667 0 0 1.5555555556 0 0 
1.9444444444 0 0 2.3333333333 0 0 2.7222222222 0 0 
3.1111111111 0 0 3.5 0 0 3.8888888889 0 0 
4.2777777778 0 0 4.6666666667 0 0 5.0555555556 0 0 
5.4444444444 0 0 5.8333333333 0 0 6.2222222222 0 0 
6.6111111111 0 0 0 6.6111111111 0 0 6.2222222222 0 
0 5.8333333333 0 0 5.4444444444 0 0 5.0555555556 0 
0 4.6666666667 0 0 4.2777777778 0 0 3.8888888889 0 
0 3.5 0 0 3.1111111111 0 0 2.7222222222 0 
0 2.3333333333 0 0 1.9444444444 0 0 1.5555555556 0 
0 1.1666666667 0 0 0.77777777778 0 0 0.38888888889 0 
7 0.38888888889 0 7 0.77777777778 0 7 1.1666666667 0 
7 1.5555555556 0 7 1.9444444444 0 7 2.3333333333 0 
7 2.7222222222 0 7 3.1111111111 0 7 3.5 0 
7 3.8888888889 0 7 4.2777777778 0 7 4.6666666667 0 
7 5.0555555556 0 7 5.4444444444 0 7 5.8333333333 0 
7 6.2222222222 0 7 6.6111111111 0 6.6111111111 7 0 
6.2222222222 7 0 5.8333333333 7 0 5.4444444444 7 0 
5.0555555556 7 0 4.6666666667 7 0 4.2777777778 7 0 
3.8888888889 7 0 3.5 7 0 3.1111111111 7 0 
2.7222222222 7 0 2.3333333333 7 0 1.9444444444 7 0 
1.5555555556 7 0 1.1666666667 7 0 0.77777777778 7 0 
0.38888888889 7 0 1.3333333333 1 0 1.6666666667 1 0 
2 1.3333333333 0 2 1.6666666667 0 1.6666666667 2 0 
1.3333333333 2 0 1 1.6666666667 0 1 1.3333333333 0 
5 1.6666666667 0 5 1.3333333333 0 5.3333333333 1 0 
5.6666666667 1 0 6 1.3333333333 0 6 1.6666666667 0 
5.6666666667 2 0 5.3333333333 2 0 2.3333333333 2 0 
2.6666666667 2 0 3 1.6666666667 0 3 1.3333333333 0 
3.3333333333 1 0 3.6666666667 1 0 4 1.3333333333 0 
4 1.6666666667 0 4.3333333333 2 0 4.6666666667 2 0 
5 2.3333333333 0 5 2.6666666667 0 5.3333333333 3 0 
5.6666666667 3 0 6 3.3333333333 0 6 3.6666666667 0 
5.6666666667 4 0 5.3333333333 4 0 5 4.3333333333 0 
5 4.6666666667 0 4.6666666667 5 0 4.3333333333 5 0 
4 4.6666666667 0 4 4.3333333333 0 3.6666666667 4 0 
3.3333333333 4 0 3 4.3333333333 0 3 4.6666666667 0 
2.6666666667 5 0 2.3333333333 5 0 2 4.6666666667 0 
2 4.3333333333 0 1.6666666667 4 0 1.3333333333 4 0 
1 3.6666666667 0 1 3.3333333333 0 1.3333333333 3 0 
1.6666666667 3 0 2 2.6666666667 0 2 2.3333333333 0 
2 5.3333333333 0 2 5.6666666667 0 1.6666666667 6 0 
1.3333333333 6 0 1 5.6666666667 0 1 5.3333333333 0 
1.3333333333 5 0 1.6666666667 5 0 5.3333333333 5 0 
5.6666666667 5 0 6 5.3333333333 0 6 5.6666666667 0 
5.6666666667 6 0 5.3333333333 6 0 5 5.6666666667 0 
5 5.3333333333 0 3 2.3333333333 0 3 2.6666666667 0 
3.3333333333 3 0 3.6666666667 3 0 4 2.6666666667 0 
4 2.3333333333 0 3.6666666667 2 0 3.3333333333 2 0 
2 3.3333333333 0 2 3.6666666667 0 2.3333333333 4 0 
2.6666666667 4 0 3 3.6666666667 0 3 3.3333333333 0 
2.6666666667 3 0 2.3333333333 3 0 4 3.3333333333 0 
4 3.6666666667 0 4.3333333333 4 0 4.6666666667 4 0 
5 3.6666666667 0 5 3.3333333333 0 4.6666666667 3 0 
4.3333333333 3 0 1.2951917063 1.5 0 1.7050506247 1.5 0 
1.5000403885 1.2474399183 0 1.5000403885 1.7525600817 0 1.7576802451 1.7576802451 0 
1.2423197549 1.2423197549 0 1.7576802451 1.2423197549 0 1.2423197549 1.7576802451 0 
1.5 3.7048082937 0 1.5 3.2949493753 0 1.2474399183 3.4999596115 0 
1.7525600817 3.4999596115 0 1.2423197549 3.7576802451 0 1.7576802451 3.2423197549 0 
1.7576802451 3.7576802451 0 1.2423197549 3.2423197549 0 1.7048082937 5.5 0 
1.2949493753 5.5 0 1.4999596115 5.2474399183 0 1.4999596115 5.7525600817 0 
1.2423197549 5.2423197549 0 1.7576802451 5.7576802451 0 1.7576802451 5.2423197549 0 
1.2423197549 5.7576802451 0 2.5 2.297798335 0 2.5 2.7026766338 0 
2.2474399183 2.5000791615 0 2.7525600817 2.5000791615 0 2.2423197549 2.7576802451 0 
2.7576802451 2.7576802451 0 2.2423197549 2.2423197549 0 2.7576802451 2.2423197549 0 
2.5 4.6985523849 0 2.5 4.2971333787 0 2.2474399183 4.4992809606 0 
2.7525600817 4.4992809606 0 2.7576802451 4.2423197549 0 2.2423197549 4.7576802451 0 
2.7576802451 4.7576802451 0 2.2423197549 4.2423197549 0 3.5 1.7048082937 0 
3.5 1.2949493753 0 3.2474399183 1.4999596115 0 3.7525600817 1.4999596115 0 
3.2423197549 1.2423197549 0 3.2423197549 1.7576802451 0 3.7576802451 1.2423197549 0 
3.7576802451 1.7576802451 0 3.5 3.2951917063 0 3.5 3.7050506247 0 
3.2474399183 3.5000403885 0 3.7525600817 3.5000403885 0 3.2423197549 3.2423197549 0 
3.7576802451 3.7576802451 0 3.2423197549 3.7576802451 0 3.7576802451 3.2423197549 0 
4.5 2.2951917063 0 4.5 2.7050506247 0 4.2474399183 2.5000403885 0 
4.7525600817 2.5000403885 0 4.7576802451 2.2423197549 0 4.2423197549 2.2423197549 0 
4.7576802451 2.7576802451 0 4.2423197549 2.7576802451 0 4.6985523849 4.5 0 
4.2971333787 4.5 0 4.4992809606 4.7525600817 0 4.4992809606 4.2474399183 0 
4.7576802451 4.7576802451 0 4.2423197549 4.7576802451 0 4.7576802451 4.2423197549 0 
4.2423197549 4.2423197549 0 5.2951917063 1.5 0 5.7050506247 1.5 0 
5.5000403885 1.2474399183 0 5.5000403885 1.7525600817 0 5.2423197549 1.7576802451 0 
5.7576802451 1.2423197549 0 5.2423197549 1.2423197549 0 5.7576802451 1.7576802451 0 
5.5 3.2951917063 0 5.5 3.7050506247 0 5.7525600817 3.5000403885 0 
5.2474399183 3.5000403885 0 5.7576802451 3.2423197549 0 5.2423197549 3.7576802451 0 
5.7576802451 3.7576802451 0 5.2423197549 3.2423197549 0 5.6985523849 5.5 0 
5.2971333787 5.5 0 5.4992809606 5.2474399183 0 5.4992809606 5.7525600817 0 
5.2423197549 5.2423197549 0 5.7576802451 5.2423197549 0 5.7576802451 5.7576802451 0 
5.2423197549 5.7576802451 0 3.7485855544 6.6942501976 0 2.2872656985 5.8378913721 0 
4.7119339728 5.8373697827 0 2.8759754619 6.5951459244 0 2.8162186717 5.3084308736 0 
3.186129153 5.2921568433 0 2.9979032054 5.5850721589 0 3.3402908331 5.6008010525 0 
4.1834772538 5.3076746294 0 4.7107049802 6.1677403394 0 4.4211946596 6.0016838939 0 
0.27665997492 2.5838218441 0 6.7053237048 2.42793991 0 0.29467629521 4.57206009 0 
4.4161781559 0.27665997492 0 6.663212343 4.4722222222 0 2.42793991 0.29467629521 0 
2.2918240758 6.1960938346 0 3.1734987121 5.8836777691 0 3.5136330362 5.8882723168 0 
6.6167962299 6.3741865029 0 6.3741865029 0.38320377014 0 0.38357251857 6.3760800284 0 
0.38320377014 0.6258134971 0 5.5 4.7113248654 0 2.5 1.6872666359 0 
5.8514999722 2.3378951476 0 3.6772759043 4.8414452564 0 4.3378951476 1.1485000278 0 
1.1485000278 4.6621048524 0 1.1485000278 2.6621048524 0 2.3378951476 1.1485000278 0 
5.1103344757 6.2741611014 0 0.71132486541 5.1666666667 0 6.2886751346 1.8333333333 0 
1.8333333333 0.71132486541 0 1.8899895413 6.2784546756 0 5.1666666667 0.71132486541 0 
6.2886751346 5.1666666667 0 0.71132486541 1.8333333333 0 3.8333333333 0.71132486541 0 
6.2886751346 3.8333333333 0 0.71132486541 3.1666666667 0 6.2939163714 3.1693263045 0 
3.1693263045 0.70608362863 0 0.70608362863 3.8306736955 0 6.3007298331 5.8302758913 0 
5.8302758913 0.69927016685 0 0.68791714935 5.8284678454 0 0.69927016685 1.1697241087 0 
1.1703128001 0.69343635082 0 1.1703128001 6.3065636492 0 5.8296871999 6.3065636492 0 
6.3065636492 1.1703128001 0 4.4127643558 6.3484393703 0 4.0729408297 6.1740044985 0 
5.3127333641 2.5 0 4.5 1.6872666359 0 1.6872666359 4.5 0 
1.6872666359 2.5 0 3.5 4.3127333641 0 2.5448645473 5.9628839255 0 
5.8438027206 4.298242306 0 3.341591884 6.1882059124 0 3.8079455038 5.2924572466 0 
4.0000028322 5.5805606494 0 0.80895730489 4.7699760833 0 2.2300239167 0.80895730489 0 
6.1910426951 2.2300239167 0 0.81140688702 2.7706116978 0 4.2293883022 0.81140688702 0 
6.1530370913 4.2585353481 0 2.1540193915 6.522253769 0 4.8162223334 6.4882902395 0 
4.8222111689 0.70955465736 0 6.2921473568 4.827319268 0 0.70955465736 2.1777888311 0 
6.3389745166 0.79855227087 0 0.79855227087 0.66102548337 0 6.2014477291 6.3389745166 0 
0.79902978757 6.339184919 0 2.827319268 0.70785264318 0 6.2921473568 2.827319268 0 
0.70785264318 4.172680732 0 2.984286409 6.1874521762 0 2.6004296679 5.6380503952 0 
4.3907348225 5.6293300039 0 2.4954354469 6.464014563 0 0.49511543862 4.857146981 0 
2.142853019 0.49511543862 0 6.5048845614 2.142853019 0 5.8109523545 2.6966506386 0 
3.3095189699 4.8399570492 0 1.1890476455 2.3033493614 0 2.6966506386 1.1890476455 0 
4.6966506386 1.1890476455 0 1.1890476455 4.3033493614 0 3.5 5.1333820886 0 
6.0092788027 4.6114103291 0 4.1180693191 6.5205687606 0 1.3559386168 0.35702514778 0 
5.6476385745 0.34601141574 0 0.34413339402 5.6496515319 0 0.34601141574 1.3523614255 0 
6.6539885843 5.6476385745 0 5.6440613832 6.6429748522 0 1.3559386168 6.6429748522 0 
6.6429748522 1.3559386168 0 3.691651827 6.1657024845 0 0.38131474442 4.0107495165 0 
0.35859789556 3.6542298248 0 2.9892504835 0.38131474442 0 3.3457701752 0.35859789556 0 
6.6186852556 2.9892504835 0 6.6414021044 3.3457701752 0 2.485711609 5.2962123554 0 
4.5142724884 5.301683263 0 4.1386885406 0.49621789734 0 0.49621789734 2.8613114594 0 
6.4653693356 4.1675183045 0 1.7815734083 0.35375209722 0 0.35191041811 5.2192251844 0 
5.2045327576 6.6420335985 0 5.2715908019 0.34496760504 0 0.34496760504 1.7284091981 0 
1.7912623484 6.6472833477 0 6.6462479028 1.7815734083 0 6.655032395 5.2715908019 0 
6.0018111307 0.33962155199 0 6.660378448 6.0018111307 0 0.33962155199 0.99818886931 0 
0.33789389548 6.0020556849 0 4.8431738401 0.36643899333 0 0.36643899333 2.1568261599 0 
6.6695014189 4.8502181121 0 3.3194031049 6.6880752893 0 0.98302760942 6.6572105079 0 
6.0170519767 6.6571754409 0 6.6571754409 0.9829480233 0 0.9829480233 0.34282455914 0 
0.60283050123 6.6812981717 0 6.6809416725 0.60267619269 0 0.60267619269 0.31905832746 0 
6.3973238073 6.6809416725 0 5.508864916 4.3176715804 0 3.7798225257 0.35426223421 0 
0.35426223421 3.2201774743 0 6.6429380014 3.7819238204 0 0.71132486541 5.5 0 
5.4647693027 6.3109555335 0 1.5 0.71132486541 0 3.5 0.71132486541 0 
0.71132486541 3.5 0 6.2886751346 1.5 0 6.2886751346 3.5 0 
[...]
CELL_DATA 1056
FIELD FieldData 1
radiation%20flux%20density 1 1056 double
-0.001175354229 -0.001175354229 -0.001175354229 -0.001175354229 -0.001175354229 -0.001175354229 -0.001175354229 -0.001175354229 -0.001175354229 
-0.001175354229 -0.001175354229 -0.001175354229 -0.001175354229 -0.001175354229 -0.001175354229 -0.001175354229 -0.001175354229 -0.001175354229 
-0.001175354229 -0.001175354229 -0.001175354229 -0.001175354229 -0.001175354229 -0.001175354229 -0.001175354229 -0.001175354229 -0.001175354229 
-0.001175354229 -0.001175354229 -0.001175354229 -0.001175354229 -0.001175354229 -0.001175354229 -0.001175354229 -0.001175354229 -0.001175354229 
-0.001175354229 -0.001175354229 -0.001175354229 -0.001175354229 -0.001175354229 -0.001175354229 -0.001175354229 -0.001175354229 -0.001175354229 
-0.001175354229 -0.001175354229 -0.001175354229 -0.001175354229 -0.001175354229 -0.001175354229 -0.001175354229 -0.001175354229 -0.001175354229 
-0.001175354229 -0.001175354229 -0.001175354229 -0.001175354229 -0.001175354229 -0.001175354229 -0.001175354229 -0.001175354229 -0.001175354229 
-0.001175354229 -0.001175354229 -0.001175354229 -0.001175354229 -0.001175354229 -0.001175354229 -0.001175354229 -0.001175354229 -0.001175354229 
-0.001175354229 -0.001175354229 -0.001175354229 -0.001175354229 -0.001175354229 -0.001175354229 -0.001175354229 -0.001175354229 -0.001175354229 
-0.001175354229 -0.001175354229 -0.001175354229 -0.001175354229 -0.001175354229 -0.001175354229 -0.001175354229 -0.001175354229 -0.001175354229 
-0.001175354229 -0.001175354229 -0.001175354229 -0.001175354229 -0.001175354229 -0.001175354229 -0.001175354229 -0.001175354229 -0.001175354229 
-0.001175354229 -0.001175354229 -0.001175354229 -0.001175354229 -0.001175354229 -0.001175354229 -0.001175354229 -0.001175354229 -0.001175354229 
-0.001175354229 -0.001175354229 -0.001175354229 -0.001175354229 -0.001175354229 -0.001175354229 -0.001175354229 -0.001175354229 -0.001175354229 
-0.001175354229 -0.001175354229 -0.001175354229 -0.001175354229 -0.001175354229 -0.001175354229 -0.001175354229 -0.001175354229 -0.001175354229 
-0.001175354229 -0.001175354229 -0.001175354229 -0.001175354229 -0.001175354229 -0.001175354229 -0.001175354229 -0.001175354229 -0.001175354229 
-0.001175354229 -0.001175354229 -0.001175354229 -0.001175354229 -0.001175354229 -0.001175354229 -0.001175354229 -0.001175354229 -0.001175354229 
-0.001175354229 -0.001175354229 -0.001175354229 -0.001175354229 -0.001175354229 -0.001175354229 -0.001175354229 -0.001175354229 -0.001175354229 
-0.001175354229 -0.001175354229 -0.001175354229 0.32218118677 0.32218118677 0.27929540709 0.27926629057 0.27270276389 0.2727027643 
0.26227966045 0.26227966026 0.26227966063 0.26227966014 0.26227966035 0.26227966054 0.26227966005 0.26227966054 0.30770420705 
0.30771206519 0.30771206518 0.30770420703 0.32218118677 0.32218118677 0.32218118677 0.32218118677 0.30594486955 0.30594335561 
0.30594335542 0.30594486977 -0.001175354229 -0.001175354229 -0.001175354229 -0.001175354229 -0.001175354229 -0.001175354229 -0.001175354229 
-0.001175354229 -0.001175354229 -0.001175354229 -0.001175354229 -0.001175354229 -0.001175354229 -0.001175354229 -0.001175354229 -0.001175354229 
-0.001175354229 -0.001175354229 -0.001175354229 -0.001175354229 -0.001175354229 -0.001175354229 -0.001175354229 -0.001175354229 -0.001175354229 
-0.001175354229 -0.001175354229 -0.001175354229 -0.001175354229 -0.001175354229 -0.001175354229 -0.001175354229 -0.001175354229 -0.001175354229 
-0.001175354229 -0.001175354229 -0.001175354229 -0.001175354229 -0.001175354229 -0.001175354229 -0.001175354229 -0.001175354229 -0.001175354229 
-0.001175354229 -0.001175354229 -0.001175354229 -0.001175354229 -0.001175354229 -0.001175354229 -0.001175354229 -0.001175354229 -0.001175354229 
-0.001175354229 -0.001175354229 -0.001175354229 -0.001175354229 -0.001175354229 -0.001175354229 -0.001175354229 -0.001175354229 -0.001175354229 
-0.001175354229 -0.001175354229 -0.001175354229 -0.001175354229 -0.001175354229 -0.001175354229 -0.001175354229 -0.001175354229 -0.001175354229 
-0.001175354229 -0.001175354229 -0.001175354229 -0.001175354229 -0.001175354229 -0.001175354229 -0.001175354229 -0.001175354229 -0.001175354229 
-0.001175354229 -0.001175354229 -0.001175354229 -0.001175354229 -0.001175354229 -0.001175354229 -0.001175354229 -0.001175354229 -0.001175354229 
-0.001175354229 -0.001175354229 -0.001175354229 -0.001175354229 -0.001175354229 -0.001175354229 -0.001175354229 -0.001175354229 -0.001175354229 
-0.001175354229 -0.001175354229 -0.001175354229 -0.001175354229 -0.001175354229 -0.001175354229 -0.001175354229 -0.001175354229 -0.001175354229 
-0.001175354229 -0.001175354229 -0.001175354229 -0.001175354229 -0.001175354229 -0.001175354229 -0.001175354229 -0.001175354229 -0.001175354229 
-0.001175354229 -0.001175354229 -0.001175354229 -0.001175354229 -0.001175354229 -0.001175354229 -0.001175354229 -0.001175354229 -0.001175354229 
-0.001175354229 -0.001175354229 -0.001175354229 -0.001175354229 -0.001175354229 -0.001175354229 0.023075686633 0.023075686633 0.023075686633 
0.023075686633 0.023075686633 0.023075686633 0.023075686633 0.023075686633 0.023075686633 0.023075686633 0.023075686633 0.023075686633 
0.023075686633 0.023075686633 0.023075686633 0.023075686633 0.023075686633 0.023075686633 0.023075686633 0.023075686633 0.023075686633 
0.023075686633 0.023075686633 0.023075686633 0.023075686633 0.023075686633 0.023075686633 0.023075686633 0.023075686633 0.023075686633 
0.023075686633 0.023075686633 0.023075686633 0.023075686633 0.023075686633 0.023075686633 0.023075686633 0.023075686633 0.023075686633 
0.023075686633 0.023075686633 0.023075686633 0.023075686633 0.023075686633 0.023075686633 0.023075686633 0.023075686633 0.023075686633 
3.5449077018e-10 3.5449077018e-10 3.5449077018e-10 0.023075686633 0.023075686633 0.023075686633 3.5449077018e-10 3.5449077018e-10 3.5449077018e-10 
0.023075686633 0.023075686633 0.023075686633 0.023075686633 0.023075686633 0.023075686633 0.023075686633 0.023075686633 0.023075686633 
0.023075686633 0.023075686633 0.023075686633 0.023075686633 0.023075686633 0.023075686633 0.023075686633 0.023075686633 0.023075686633 
0.023075686633 0.023075686633 0.023075686633 0.023075686633 0.023075686633 0.023075686633 0.023075686633 0.023075686633 0.023075686633 
0.023075686633 0.023075686633 0.023075686633 3.5449077018e-10 3.5449077018e-10 3.5449077018e-10 3.5449077018e-10 0.023075686633 0.023075686633 
0.023075686633 0.023075686633 0.023075686633 0.023075686633 0.023075686633 0.023075686633 0.023075686633 0.023075686633 0.023075686633 
0.023075686633 0.023075686633 0.023075686633 0.023075686633 0.023075686633 0.023075686633 0.023075686633 0.023075686633 0.023075686633 
0.023075686633 0.023075686633 0.023075686633 0.023075686633 0.023075686633 0.023075686633 0.023075686633 0.023075686633 0.023075686633 
0.023075686633 0.023075686633 0.023075686633 0.023075686633 0.023075686633 0.023075686633 0.023075686633 0.023075686633 0.023075686633 
0.023075686633 0.023075686633 0.023075686633 0.023075686633 0.023075686633 0.023075686633 0.023075686633 0.023075686633 3.5449077018e-10 
3.5449077018e-10 3.5449077018e-10 0.023075686633 0.023075686633 0.023075686633 0.023075686633 0.023075686633 0.023075686633 0.023075686633 
0.023075686633 0.023075686633 0.023075686633 0.023075686633 0.023075686633 0.023075686633 0.023075686633 0.023075686633 0.023075686633 
0.023075686633 0.023075686633 0.023075686633 0.023075686633 0.023075686633 0.023075686633 0.023075686633 0.023075686633 0.023075686633 
0.023075686633 0.023075686633 0.023075686633 0.023075686633 0.023075686633 0.023075686633 0.023075686633 0.023075686633 0.023075686633 
0.023075686633 0.023075686633 0.023075686633 0.023075686633 0.023075686633 0.023075686633 0.023075686633 0.023075686633 0.023075686633 
0.023075686633 0.023075686633 0.023075686633 0.023075686633 0.023075686633 3.5449077018e-10 3.5449077018e-10 3.5449077018e-10 3.5449077018e-10 
0.023075686633 0.023075686633 0.023075686633 0.023075686633 0.023075686633 0.023075686633 0.023075686633 0.023075686633 0.023075686633 
0.023075686633 0.023075686633 0.023075686633 0.023075686633 0.023075686633 0.023075686633 0.023075686633 0.023075686633 0.023075686633 
0.023075686633 0.023075686633 0.023075686633 0.023075686633 0.023075686633 0.023075686633 0.023075686633 0.023075686633 0.023075686633 
0.023075686633 0.023075686633 0.023075686633 0.023075686633 0.023075686633 0.023075686633 3.5449077018e-10 0.023075686633 3.5449077018e-10 
3.5449077018e-10 3.5449077018e-10 3.5449077018e-10 3.5449077018e-10 3.5449077018e-10 3.5449077018e-10 3.5449077018e-10 3.5449077018e-10 3.5449077018e-10 
3.5449077018e-10 3.5449077018e-10 3.5449077018e-10 3.5449077018e-10 3.5449077018e-10 3.5449077018e-10 3.5449077018e-10 3.5449077018e-10 0.023075686633 
0.023075686633 0.023075686633 0.023075686633 0.023075686633 0.023075686633 0.023075686633 3.5449077018e-10 0.023075686633 0.023075686633 
0.023075686633 3.5449077018e-10 3.5449077018e-10 3.5449077018e-10 3.5449077018e-10 3.5449077018e-10 3.5449077018e-10 3.5449077018e-10 3.5449077018e-10 
3.5449077018e-10 3.5449077018e-10 3.5449077018e-10 3.5449077018e-10 3.5449077018e-10 3.5449077018e-10 3.5449077018e-10 3.5449077018e-10 3.5449077018e-10 
0.023075686633 0.023075686633 0.023075686633 0.023075686633 0.023075686633 0.023075686633 0.023075686633 0.023075686633 0.023075686633 
0.023075686633 0.023075686633 0.023075686633 0.023075686633 0.023075686633 0.023075686633 0.023075686633 0.023075686633 0.023075686633 
0.023075686633 0.023075686633 0.023075686633 0.023075686633 0.023075686633 0.023075686633 0.023075686633 0.023075686633 0.023075686633 
0.023075686633 0.055973059118 0.023075686633 0.023075686633 0.023075686633 0.023075686633 0.023075686633 0.023075686633 0.023075686633 
0.023075686633 0.023075686633 0.023075686633 0.023075686633 0.023075686633 0.023075686633 0.023075686633 0.023075686633 0.023075686633 
0.023075686633 0.023075686633 0.023075686633 0.023075686633 0.023075686633 0.023075686633 0.023075686633 0.023075686633 0.023075686633 
0.023075686633 0.023075686633 0.023075686633 0.023075686633 0.023075686633 0.023075686633 0.023075686633 0.023075686633 0.023075686633 
0.023075686633 0.023075686633 0.023075686633 0.023075686633 0.023075686633 0.023075686633 0.023075686633 0.023075686633 0.023075686633 
0.023075686633 0.023075686633 0.023075686633 0.023075686633 0.023075686633 0.023075686633 0.023075686633 0.023075686633 0.023075686633 
0.023075686633 0.023075686633 0.023075686633 0.023075686633 0.023075686633 0.023075686633 0.023075686633 0.023075686633 0.023075686633 
0.023075686633 0.023075686633 0.023075686633 0.023075686633 0.023075686633 0.023075686633 0.023075686633 0.023075686633 0.023075686633 
0.023075686633 0.023075686633 0.023075686633 0.023075686633 0.023075686633 0.023075686633 0.023075686633 0.023075686633 0.023075686633 
0.023075686633 0.023075686633 0.023075686633 0.023075686633 0.023075686633 0.023075686633 0.023075686633 0.023075686633 0.023075686633 
0.023075686633 0.023075686633 0.023075686633 0.023075686633 0.023075686633 0.023075686633 0.023075686633 0.023075686633 0.023075686633 
0.023075686633 0.023075686633 0.023075686633 0.023075686633 0.023075686633 0.023075686633 0.023075686633 0.023075686633 0.023075686633 
0.023075686633 0.023075686633 0.023075686633 0.023075686633 0.023075686633 0.023075686633 0.023075686633 0.023075686633 0.023075686633 
0.023075686633 0.023075686633 0.023075686633 0.023075686633 0.023075686633 0.023075686633 0.023075686633 0.023075686633 0.023075686633 
0.023075686633 0.023075686633 0.023075686633 0.023075686633 0.023075686633 0.023075686633 0.023075686633 0.023075686633 0.023075686633 
0.023075686633 0.023075686633 0.023075686633 0.023075686633 0.023075686633 0.023075686633 0.023075686633 0.023075686633 0.023075686633 
0.023075686633 0.023075686633 0.023075686633 0.023075686633 0.023075686633 0.023075686633 0.023075686633 0.023075686633 0.023075686633 
0.023075686633 0.023075686633 0.023075686633 0.023075686633 0.023075686633 0.023075686633 0.023075686633 0.023075686633 0.023075686633 
0.023075686633 0.023075686633 0.023075686633 0.023075686633 0.023075686633 0.023075686633 0.023075686633 0.023075686633 0.023075686633 
0.023075686633 0.023075686633 0.023075686633 0.023075686633 0.023075686633 0.023075686633 0.023075686633 0.023075686633 0.023075686633 
0.023075686633 0.023075686633 0.023075686633 0.023075686633 0.023075686633 0.023075686633 0.023075686633 3.5449077018e-10 3.5449077018e-10 
3.5449077018e-10 3.5449077018e-10 3.5449077018e-10 3.5449077018e-10 3.5449077018e-10 3.5449077018e-10 0.023075686633 0.023075686633 0.023075686633 
0.023075686633 0.023075686633 0.023075686633 0.023075686633 0.023075686633 0.023075686633 0.023075686633 0.023075686633 0.023075686633 
0.023075686633 0.06525468701 0.023075686633 0.023075686633 0.023075686633 0.023075686633 0.023075686633 0.023075686633 0.023075686633 
0.023075686633 0.06525468701 0.023075686633 0.023075686633 0.023075686633 0.023075686633 0.023075686633 0.023075686633 0.023075686633 
0.023075686633 0.023075686633 0.023075686633 0.023075686633 0.023075686633 0.023075686633 0.023075686633 0.023075686633 0.023075686633 
0.023075686633 0.023075686633 0.023075686633 0.023075686633 0.023075686633 0.023075686633 0.023075686633 0.023075686633 0.023075686633 
0.023075686633 0.023075686633 0.023075686633 0.023075686633 0.023075686633 0.023075686633 0.023075686633 0.023075686633 0.023075686633 
0.023075686633 0.023075686633 0.023075686633 0.023075686633 0.023075686633 0.023075686633 0.023075686633 0.023075686633 0.023075686633 
0.023075686633 0.023075686633 3.5449077018e-10 0.023075686633 0.023075686633 0.023075686633 0.023075686633 0.023075686633 0.023075686633 
0.023075686633 0.023075686633 0.023075686633 0.023075686633 0.023075686633 0.023075686633 0.023075686633 0.023075686633 0.023075686633 
0.023075686633 0.023075686633 0.023075686633 0.023075686633 0.023075686633 0.023075686633 0.023075686633 0.023075686633 0.023075686633 
0.023075686633 0.023075686633 0.023075686633 0.023075686633 0.023075686633 0.023075686633 0.023075686633 0.023075686633 0.023075686633 
0.023075686633 3.5449077018e-10 3.5449077018e-10 3.5449077018e-10 0.023075686633 0.023075686633 0.023075686633 0.023075686633 0.023075686633 
0.023075686633 3.5449077018e-10 3.5449077018e-10 3.5449077018e-10 3.5449077018e-10 0.023075686633 3.5449077018e-10 3.5449077018e-10 0.023075686633 
0.023075686633 0.023075686633 0.023075686633 0.023075686633 0.023075686633 0.023075686633 0.023075686633 0.023075686633 0.023075686633 
0.023075686633 0.023075686633 0.023075686633 0.023075686633 0.023075686633 0.023075686633 0.023075686633 0.023075686633 0.023075686633 
0.023075686633 0.023075686633 0.023075686633 0.023075686633 0.023075686633 0.023075686633 0.023075686633 0.023075686633 0.023075686633 
0.023075686633 0.023075686633 0.023075686633 0.023075686633 0.023075686633 0.023075686633 0.023075686633 0.023075686633 0.023075686633 
0.023075686633 0.023075686633 0.023075686633 0.023075686633 0.023075686633 0.023075686633 0.023075686633 0.023075686633 0.023075686633 
0.023075686633 0.023075686633 0.023075686633 0.023075686633 0.023075686633 0.023075686633 0.023075686633 0.023075686633 0.057622857097 
0.023075686633 0.023075686633 0.023075686633 0.023075686633 0.023075686633 0.023075686633 0.065550103782 0.023075686633 0.023075686633 
0.023075686633 0.065550103782 0.023075686633 0.023075686633 0.023075686633 0.023075686633 0.023075686633 0.023075686633 0.023075686633 
0.023075686633 0.023075686633 0.023075686633 0.023075686633 0.023075686633 0.023075686633 0.023075686633 0.023075686633 0.023075686633 
0.064669175561 0.023075686633 0.023075686633 0.023075686633 0.065550103648 0.023075686633 0.023075686633 0.023075686633 0.023075686633 
0.065550103648 0.023075686633 0.023075686633 0.023075686633 0.023075686633 0.023075686633 0.023075686633 0.023075686633 0.023075686633 
0.023075686633 0.023075686633 0.023075686633 0.023075686633 0.023075686633 0.023075686633 0.023075686633 0.057712958372 0.023075686633 
0.023075686633 0.023075686633 0.023075686633 0.023075686633 0.065550103972 0.023075686633 0.065550103972 0.023075686633 0.023075686633 
0.023075686633 0.023075686633 0.023075686633 0.023075686633 0.023075686633 0.023075686633 0.023075686633 0.023075686633 0.023075686633 
0.023075686633 0.023075686633 0.023075686633 
POINT_DATA 565
FIELD FieldData 1
radiation%20flux%20density 1 565 double
3.5449077018e-10 3.5449077018e-10 3.5449077018e-10 3.5449077018e-10 0.016146817816 0.014992006346 0.010950166202 0.016146817816 0.010950166202 
0.016146817816 0.016146817816 0.014992006346 0.010950166202 0.016146817816 0.014992006346 0.010950166202 0.010950166202 0.016146817816 
0.014992006346 0.010950166202 0.010950166202 0.016146817816 0.087395597121 0.087395597034 0.016146817816 0.010950166202 0.010950166202 
0.016146817816 0.014992006346 0.010950166202 0.014992006346 0.016146817816 0.014992006346 0.016146817816 0.016146817816 0.014992006346 
0.087432524054 0.087432524171 0.0076918957808 0.0076918957808 0.0076918957808 0.0076918957808 0.0076918957808 0.0076918957808 0.011537843494 
0.0076918957808 0.0076918957808 0.0076918957808 0.0076918957808 0.0076918957808 0.0076918957808 0.0076918957808 0.0076918957808 0.0076918957808 
0.0076918957808 0.0076918957808 0.0076918957808 0.0076918957808 0.0076918957808 0.0076918957808 0.0076918957808 0.011537843494 0.0076918957808 
0.0076918957808 0.0076918957808 0.0076918957808 0.0076918957808 0.0076918957808 0.0076918957808 0.0076918957808 0.0076918957808 0.0076918957808 
0.0076918957808 0.0076918957808 0.0076918957808 0.0076918957808 0.0076918957808 0.0076918957808 0.011537843494 0.0076918957808 0.0076918957808 
0.0076918957808 0.0076918957808 0.0076918957808 0.0076918957808 0.0076918957808 0.0076918957808 0.0076918957808 0.0076918957808 0.0076918957808 
0.0076918957808 0.0076918957808 0.0076918957808 0.0076918957808 0.0076918957808 0.0076918957808 0.0076918957808 0.0076918957808 0.0076918957808 
0.0076918957808 0.0076918957808 0.0076918957808 0.0076918957808 0.0076918957808 0.0076918957808 0.0076918957808 0.010950166202 0.010950166202 
0.010950166202 0.010950166202 0.010950166202 0.010950166202 0.010950166202 0.010950166202 0.010950166202 0.010950166202 0.010950166202 
0.010950166202 0.010950166202 0.010950166202 0.010950166202 0.010950166202 0.010950166202 0.010950166202 0.010950166202 0.010950166202 
0.010950166202 0.010950166202 0.010950166202 0.010950166202 0.010950166202 0.010950166202 0.010950166202 0.010950166202 0.010950166202 
0.010950166202 0.010950166202 0.010950166202 0.010950166202 0.010950166202 0.010950166202 0.010950166202 0.010950166202 0.010950166202 
0.010950166202 0.010950166202 0.16559226515 0.16559226514 0.010950166202 0.010950166202 0.010950166202 0.010950166202 0.010950166202 
0.010950166202 0.010950166202 0.010950166202 0.010950166202 0.010950166202 0.010950166202 0.010950166202 0.010950166202 0.010950166202 
0.010950166202 0.010950166202 0.010950166202 0.010950166202 0.010950166202 0.010950166202 0.010950166202 0.010950166202 0.010950166202 
0.010950166202 0.010950166202 0.010950166202 0.010950166202 0.010950166202 0.010950166202 0.010950166202 0.010950166202 0.010950166202 
0.16592262997 0.16592263001 0.010950166202 0.010950166202 0.010950166202 0.010950166202 0.010950166202 0.010950166202 0.010950166202 
0.010950166202 0.16570345758 0.1657037099 0.010950166202 0.010950166202 0.1645443406 0.16454408825 0.010950166202 0.010950166202 
0.010950166202 0.010950166202 0.010950166202 0.010950166202 -0.001175354229 -0.001175354229 -0.001175354229 -0.001175354229 -0.001175354229 
-0.001175354229 -0.001175354229 -0.001175354229 -0.001175354229 -0.001175354229 -0.001175354229 -0.001175354229 -0.001175354229 -0.001175354229 
-0.001175354229 -0.001175354229 -0.001175354229 -0.001175354229 -0.001175354229 -0.001175354229 -0.001175354229 -0.001175354229 -0.001175354229 