# vtk DataFile Version 4.2
vtk output
ASCII
DATASET UNSTRUCTURED_GRID
POINTS 61 double
-0.6 -0.6 0 0.6 -0.6 0 0.6 0.6 0 
-0.6 0.6 0 0 0 0 -0.4 -0.6 0 
-0.2 -0.6 0 6.6613381478e-16 -0.6 0 0.2 -0.6 0 
0.4 -0.6 0 0.6 -0.4 0 0.6 -0.2 0 
0.6 6.6613381478e-16 0 0.6 0.2 0 0.6 0.4 0 
0.4 0.6 0 0.2 0.6 0 -6.6613381478e-16 0.6 0 
-0.2 0.6 0 -0.4 0.6 0 -0.6 0.4 0 
-0.6 0.2 0 -0.6 -6.6613381478e-16 0 -0.6 -0.2 0 
-0.6 -0.4 0 -0.088332399106 0.43353121176 0 -0.43353121176 -0.088332399106 0 
0.40841747107 -0.28277700638 0 0.098365396477 -0.42773865803 0 0.42773865803 0.098365396477 0 
-0.29915252614 -0.43064559099 0 0.28277700638 0.40841747107 0 -0.43064559099 0.29915252614 0 
-0.10013118828 -0.42759398766 0 -0.20781352442 -0.27458104075 0 -0.0060623725765 -0.26932681281 0 
0.19654300579 -0.27981612736 0 -0.42855941329 0.10180335451 0 -0.27474194502 0.20809221879 0 
-0.27627251382 0.017148940826 0 0.42968185474 -0.087368937613 0 0.25358983849 9.3513224001e-16 0 
0.27719329831 0.19755340122 0 0.089041103842 0.43064728037 0 -9.3611199873e-16 0.25358983849 0 
0.44021646687 0.29298768454 0 0.2928192853 -0.44065360504 0 -0.4176849844 -0.28566219856 0 
-0.28567861737 0.4177134226 0 0.1 -0.12679491924 0 0.12679491924 0.1 0 
-0.10384694829 0.12210748587 0 -0.12288196948 -0.10311927111 0 0.45358983849 -0.45358983849 0 
-0.45358983849 -0.45358983849 0 0.45358983849 0.45358983849 0 -0.45358983849 0.45358983849 0 
0.1476383677 0.28308824116 0 0.28288662677 -0.14773537411 0 -0.28834516088 -0.13980201577 0 
-0.13980201577 0.28834516088 0 
CELLS 96 384
3 38 48 32 
3 34 47 30 
3 42 45 31 
3 36 46 27 
3 44 51 50 
3 38 60 48 
3 34 59 47 
3 39 52 51 
3 27 58 36 
3 31 57 42 
3 50 51 4 
3 41 50 49 
3 51 52 4 
3 49 52 35 
3 6 33 30 
3 33 35 34 
3 8 28 7 
3 11 40 27 
3 13 29 12 
3 18 25 17 
3 23 26 22 
3 37 38 32 
3 16 43 31 
3 21 37 32 
3 33 34 30 
3 37 39 38 
3 11 27 10 
3 6 30 5 
3 7 33 6 
3 16 31 15 
3 21 32 20 
3 25 44 43 
3 26 39 37 
3 28 33 7 
3 25 43 17 
3 26 37 22 
3 28 35 33 
3 29 41 40 
3 12 40 11 
3 29 40 12 
3 17 43 16 
3 22 37 21 
3 28 36 35 
3 29 42 41 
3 49 50 4 
3 4 52 49 
3 14 45 13 
3 9 46 8 
3 19 48 18 
3 24 47 23 
3 28 46 36 
3 29 45 42 
3 13 45 29 
3 23 47 26 
3 8 46 28 
3 18 48 25 
3 5 54 0 
3 10 53 1 
3 15 55 2 
3 20 56 3 
3 0 54 24 
3 1 53 9 
3 2 55 14 
3 3 56 19 
3 40 58 27 
3 43 57 31 
3 35 52 34 
3 39 51 38 
3 48 60 25 
3 47 59 26 
3 50 57 44 
3 49 58 41 
3 36 49 35 
3 42 50 41 
3 14 55 45 
3 9 53 46 
3 19 56 48 
3 24 54 47 
3 30 54 5 
3 27 53 10 
3 31 55 15 
3 32 56 20 
3 25 60 44 
3 26 59 39 
3 41 58 40 
3 44 57 43 
3 46 53 27 
3 47 54 30 
3 45 55 31 
3 48 56 32 
3 42 57 50 
3 36 58 49 
3 44 60 51 
3 39 59 52 
3 52 59 34 
3 51 60 38 

CELL_TYPES 96
5
5
5
5
5
5
5
5
5
5
5
5
5
5
5
5
5
5
5
5
5
5
5
5
5
5
5
5
5
5
5
5
5
5
5
5
5
5
5
5
5
5
5
5
5
5
5
5
5
5
5
5
5
5
5
5
5
5
5
5
5
5
5
5
5
5
5
5
5
5
5
5
5
5
5
5
5
5
5
5
5
5
5
5
5
5
5
5
5
5
5
5
5
5
5
5

CELL_DATA 96
FIELD FieldData 1
radiation%20flux%20density 1 96 double
1.597270645e-23 1.640487611e-23 3.920861495e-23 3.4633927495e-23 2.855663128 6.7228961718e-18 1.4882619998e-18 2.5893248697 4.7666863207e-17 
4.9001323865e-17 3.0580602065 2.8104393094 3.0042662661 2.5043585989 3.1875107165e-38 2.5131177636e-08 5.0580418059e-101 2.7781903884e-36 
5.0580418059e-101 1.6357402065e-101 1.6357402065e-101 1.3871814875e-19 2.1432807267e-36 3.9491496492e-39 6.0219047966e-19 1.7895188401e-08 1.0925488099e-124 
1.67533772e-128 4.807237643e-101 1.0925488099e-124 1.67533772e-128 6.79264476e-17 1.6058104249e-18 7.537050129e-38 3.2747085733e-36 4.3404649843e-38 
8.5523188155e-19 5.7360730018e-17 5.1070999977e-101 3.6804181198e-36 3.5741746143e-101 3.353049222e-101 2.5595242804e-08 1.1665166552e-07 3.0089314042 
3.0283787528 2.8869513693e-129 2.6164279107e-129 5.1807883453e-126 5.2355333002e-126 2.5431186483e-19 1.3024237305e-18 6.7814000711e-37 2.7726431389e-38 
4.4568048104e-38 7.0240864546e-37 1.609494535e-180 1.609494535e-180 1.609494535e-180 1.609494535e-180 1.609494535e-180 1.609494535e-180 1.609494535e-180 
1.609494535e-180 3.2506891469e-17 3.1405272371e-17 0.74136997842 0.77564159417 4.9721921465e-18 8.5708745219e-19 1.4649883775 1.2453404781 
0.63049437769 0.78872178111 5.4558144256e-67 3.86439406e-67 4.7814657352e-68 5.1783009519e-68 4.6485112176e-68 4.175513294e-67 5.9096959381e-67 
4.2931054585e-68 2.0968110332e-07 2.3496860842e-08 1.4550238403e-07 2.1728079491e-07 1.5120504667e-47 1.0036509187e-48 1.7232668027e-47 9.368099428e-49 
4.1710665698e-07 2.2650419535e-07 1.2453915661 0.92050402675 5.259848321e-08 2.9648845067e-07 
POINT_DATA 61
FIELD FieldData 1
radiation%20flux%20density 1 61 double
1.609494535e-180 1.609494535e-180 1.609494535e-180 1.609494535e-180 3.0249091574 1.5495037392e-68 1.0625035722e-38 2.512350043e-38 1.4856016035e-38 
1.2881313533e-67 1.3918377647e-67 9.2606346281e-37 1.2268060399e-36 2.2604666904e-37 1.8186048085e-67 1.969898646e-67 7.1442690891e-37 1.0915695244e-36 
2.3413621515e-37 1.5938219117e-68 1.4310351528e-68 1.3163832164e-39 1.4468216614e-38 9.2421437963e-39 1.7261003173e-68 3.4946850565e-08 3.916143474e-09 
1.1453398473e-17 4.2658738009e-09 1.9441944263e-08 1.0036781409e-19 1.1486662206e-17 2.3122353575e-20 4.1885296062e-09 0.12356167602 0.64603716763 
0.1050824383 2.9825314004e-09 0.12927365143 0.71424508867 2.4250397353e-08 0.8074169718 0.13145371914 3.6213465835e-08 0.92767391643 
2.1707715652e-19 4.2391083126e-20 3.3505226527e-19 1.6707291844e-18 1.889706164 1.9981149463 1.9326211324 1.8268860779 3.0241009333e-48 
2.0073018375e-49 3.4465336054e-48 1.8736198856e-49 0.29299780238 0.24906817003 0.18410082057 0.24907841445 
