# vtk DataFile Version 5.1
vtk output
ASCII
DATASET UNSTRUCTURED_GRID
POINTS 61 double
-0.6 -0.6 0 0.6 -0.6 0 0.6 0.6 0 
-0.6 0.6 0 0 0 0 -0.4 -0.6 0 
-0.2 -0.6 0 6.6613381478e-16 -0.6 0 0.2 -0.6 0 
0.4 -0.6 0 0.6 -0.4 0 0.6 -0.2 0 
0.6 6.6613381478e-16 0 0.6 0.2 0 0.6 0.4 0 
0.4 0.6 0 0.2 0.6 0 -6.6613381478e-16 0.6 0 
-0.2 0.6 0 -0.4 0.6 0 -0.6 0.4 0 
-0.6 0.2 0 -0.6 -6.6613381478e-16 0 -0.6 -0.2 0 
-0.6 -0.4 0 -0.088332399106 0.43353121176 0 -0.43353121176 -0.088332399106 0 
0.40841747107 -0.28277700638 0 0.098365396477 -0.42773865803 0 0.42773865803 0.098365396477 0 
-0.29915252614 -0.43064559099 0 0.28277700638 0.40841747107 0 -0.43064559099 0.29915252614 0 
-0.10013118828 -0.42759398766 0 -0.20781352442 -0.27458104075 0 -0.0060623725765 -0.26932681281 0 
0.19654300579 -0.27981612736 0 -0.42855941329 0.10180335451 0 -0.27474194502 0.20809221879 0 
-0.27627251382 0.017148940826 0 0.42968185474 -0.087368937613 0 0.25358983849 9.3513224001e-16 0 
0.27719329831 0.19755340122 0 0.089041103842 0.43064728037 0 -9.3611199873e-16 0.25358983849 0 
0.44021646687 0.29298768454 0 0.2928192853 -0.44065360504 0 -0.4176849844 -0.28566219856 0 
-0.28567861737 0.4177134226 0 0.1 -0.12679491924 0 0.12679491924 0.1 0 
-0.10384694829 0.12210748587 0 -0.12288196948 -0.10311927111 0 0.45358983849 -0.45358983849 0 
-0.45358983849 -0.45358983849 0 0.45358983849 0.45358983849 0 -0.45358983849 0.45358983849 0 
0.1476383677 0.28308824116 0 0.28288662677 -0.14773537411 0 -0.28834516088 -0.13980201577 0 
-0.13980201577 0.28834516088 0 
CELLS 97 288
OFFSETS vtktypeint64
0 3 6 9 12 15 18 21 24 
27 30 33 36 39 42 45 48 51 
54 57 60 63 66 69 72 75 78 
81 84 87 90 93 96 99 102 105 
108 111 114 117 120 123 126 129 132 
135 138 141 144 147 150 153 156 159 
162 165 168 171 174 177 180 183 186 
189 192 195 198 201 204 207 210 213 
216 219 222 225 228 231 234 237 240 
243 246 249 252 255 258 261 264 267 
270 273 276 279 282 285 288 
CONNECTIVITY vtktypeint64
38 48 32 34 47 30 42 45 31 
36 46 27 44 51 50 38 60 48 
34 59 47 39 52 51 27 58 36 
31 57 42 50 51 4 41 50 49 
51 52 4 49 52 35 6 33 30 
33 35 34 8 28 7 11 40 27 
13 29 12 18 25 17 23 26 22 
37 38 32 16 43 31 21 37 32 
33 34 30 37 39 38 11 27 10 
6 30 5 7 33 6 16 31 15 
21 32 20 25 44 43 26 39 37 
28 33 7 25 43 17 26 37 22 
28 35 33 29 41 40 12 40 11 
29 40 12 17 43 16 22 37 21 
28 36 35 29 42 41 49 50 4 
4 52 49 14 45 13 9 46 8 
19 48 18 24 47 23 28 46 36 
29 45 42 13 45 29 23 47 26 
8 46 28 18 48 25 5 54 0 
10 53 1 15 55 2 20 56 3 
0 54 24 1 53 9 2 55 14 
3 56 19 40 58 27 43 57 31 
35 52 34 39 51 38 48 60 25 
47 59 26 50 57 44 49 58 41 
36 49 35 42 50 41 14 55 45 
9 53 46 19 56 48 24 54 47 
30 54 5 27 53 10 31 55 15 
32 56 20 25 60 44 26 59 39 
41 58 40 44 57 43 46 53 27 
47 54 30 45 55 31 48 56 32 
42 57 50 36 58 49 44 60 51 
39 59 52 52 59 34 51 60 38 

CELL_TYPES 96
5
5
5
5
5
5
5
5
5
5
5
5
5
5
5
5
5
5
5
5
5
5
5
5
5
5
5
5
5
5
5
5
5
5
5
5
5
5
5
5
5
5
5
5
5
5
5
5
5
5
5
5
5
5
5
5
5
5
5
5
5
5
5
5
5
5
5
5
5
5
5
5
5
5
5
5
5
5
5
5
5
5
5
5
5
5
5
5
5
5
5
5
5
5
5
5

CELL_DATA 96
FIELD FieldData 1
radiation%20flux%20density 1 96 double
0.021503201197 0.021503201197 0.021503201197 0.021503201197 2.8712197659 0.021503201197 0.021503201197 2.6161005926 0.021503201197 
0.021503201197 3.1163745231 2.831327435 3.0491444664 2.5332820226 0.021503201197 0.021503201197 5.0580418059e-101 0.021503201197 
5.0580418059e-101 1.6357402065e-101 1.6357402065e-101 0.021503201197 0.021503201197 0.021503201197 0.021503201197 0.021503201197 1.0925488099e-124 
1.67533772e-128 4.807237643e-101 1.0925488099e-124 1.67533772e-128 0.021503201197 0.021503201197 0.021503201197 0.021503201197 0.021503201197 
0.021503201197 0.021503201197 5.1070999977e-101 0.021503201197 3.5741746143e-101 3.353049222e-101 0.021503201197 0.021503201197 3.0556274026 
3.0740527308 2.8869513693e-129 2.6164279107e-129 5.1807883453e-126 5.2355333002e-126 0.021503201197 0.021503201197 0.021503201197 0.021503201197 
0.021503201197 0.021503201197 1.609494535e-180 1.609494535e-180 1.609494535e-180 1.609494535e-180 1.609494535e-180 1.609494535e-180 1.609494535e-180 
1.609494535e-180 0.021503201197 0.021503201197 0.76259165916 0.79737087627 0.021503201197 0.021503201197 1.4786065568 1.2653056689 
0.65375081764 0.80992284489 0.021503201197 0.021503201197 0.021503201197 0.021503201197 0.021503201197 0.021503201197 0.021503201197 
0.021503201197 0.021503201197 0.021503201197 0.021503201197 0.021503201197 0.021503201197 0.021503201197 0.021503201197 0.021503201197 
0.021503201197 0.021503201197 1.2605051587 0.94379554313 0.021503201197 0.021503201197 
POINT_DATA 61
FIELD FieldData 1
radiation%20flux%20density 1 61 double
1.609494535e-180 1.609494535e-180 1.609494535e-180 1.609494535e-180 3.0737997807 0.0071677337323 0.0071677337323 0.0071677337323 0.0071677337323 
0.0071677337323 0.0071677337323 0.0071677337323 0.0071677337323 0.0071677337323 0.0071677337323 0.0071677337323 0.0071677337323 0.0071677337323 
0.0071677337323 0.0071677337323 0.0071677337323 0.0071677337323 0.0071677337323 0.0071677337323 0.0071677337323 0.017919334331 0.017919334331 
0.018431315312 0.017919334331 0.017919334331 0.017919334331 0.018431315312 0.017919334331 0.017919334331 0.14501794419 0.6690223505 
0.12687780394 0.017919334331 0.15081448038 0.73696276926 0.017919334331 0.8285109254 0.15290647515 0.017919334331 0.9458068475 
0.017919334331 0.017919334331 0.018431315312 0.018431315312 1.9192641827 2.0263688185 1.961745512 1.8572100308 0.012901920718 
0.012901920718 0.012901920718 0.012901920718 0.31292387233 0.27026369473 0.20596166958 0.2693035927 
