# vtk DataFile Version 4.2
vtk output
ASCII
DATASET UNSTRUCTURED_GRID
POINTS 61 double
-0.6 -0.6 0 0.6 -0.6 0 0.6 0.6 0 
-0.6 0.6 0 0 0 0 -0.4 -0.6 0 
-0.2 -0.6 0 6.6613381478e-16 -0.6 0 0.2 -0.6 0 
0.4 -0.6 0 0.6 -0.4 0 0.6 -0.2 0 
0.6 6.6613381478e-16 0 0.6 0.2 0 0.6 0.4 0 
0.4 0.6 0 0.2 0.6 0 -6.6613381478e-16 0.6 0 
-0.2 0.6 0 -0.4 0.6 0 -0.6 0.4 0 
-0.6 0.2 0 -0.6 -6.6613381478e-16 0 -0.6 -0.2 0 
-0.6 -0.4 0 -0.088332399106 0.43353121176 0 -0.43353121176 -0.088332399106 0 
0.40841747107 -0.28277700638 0 0.098365396477 -0.42773865803 0 0.42773865803 0.098365396477 0 
-0.29915252614 -0.43064559099 0 0.28277700638 0.40841747107 0 -0.43064559099 0.29915252614 0 
-0.10013118828 -0.42759398766 0 -0.20781352442 -0.27458104075 0 -0.0060623725765 -0.26932681281 0 
0.19654300579 -0.27981612736 0 -0.42855941329 0.10180335451 0 -0.27474194502 0.20809221879 0 
-0.27627251382 0.017148940826 0 0.42968185474 -0.087368937613 0 0.25358983849 9.3513224001e-16 0 
0.27719329831 0.19755340122 0 0.089041103842 0.43064728037 0 -9.3611199873e-16 0.25358983849 0 
0.44021646687 0.29298768454 0 0.2928192853 -0.44065360504 0 -0.4176849844 -0.28566219856 0 
-0.28567861737 0.4177134226 0 0.1 -0.12679491924 0 0.12679491924 0.1 0 
-0.10384694829 0.12210748587 0 -0.12288196948 -0.10311927111 0 0.45358983849 -0.45358983849 0 
-0.45358983849 -0.45358983849 0 0.45358983849 0.45358983849 0 -0.45358983849 0.45358983849 0 
0.1476383677 0.28308824116 0 0.28288662677 -0.14773537411 0 -0.28834516088 -0.13980201577 0 
-0.13980201577 0.28834516088 0 
CELLS 96 384
3 38 48 32 
3 34 47 30 
3 42 45 31 
3 36 46 27 
3 44 51 50 
3 38 60 48 
3 34 59 47 
3 39 52 51 
3 27 58 36 
3 31 57 42 
3 50 51 4 
3 41 50 49 
3 51 52 4 
3 49 52 35 
3 6 33 30 
3 33 35 34 
3 8 28 7 
3 11 40 27 
3 13 29 12 
3 18 25 17 
3 23 26 22 
3 37 38 32 
3 16 43 31 
3 21 37 32 
3 33 34 30 
3 37 39 38 
3 11 27 10 
3 6 30 5 
3 7 33 6 
3 16 31 15 
3 21 32 20 
3 25 44 43 
3 26 39 37 
3 28 33 7 
3 25 43 17 
3 26 37 22 
3 28 35 33 
3 29 41 40 
3 12 40 11 
3 29 40 12 
3 17 43 16 
3 22 37 21 
3 28 36 35 
3 29 42 41 
3 49 50 4 
3 4 52 49 
3 14 45 13 
3 9 46 8 
3 19 48 18 
3 24 47 23 
3 28 46 36 
3 29 45 42 
3 13 45 29 
3 23 47 26 
3 8 46 28 
3 18 48 25 
3 5 54 0 
3 10 53 1 
3 15 55 2 
3 20 56 3 
3 0 54 24 
3 1 53 9 
3 2 55 14 
3 3 56 19 
3 40 58 27 
3 43 57 31 
3 35 52 34 
3 39 51 38 
3 48 60 25 
3 47 59 26 
3 50 57 44 
3 49 58 41 
3 36 49 35 
3 42 50 41 
3 14 55 45 
3 9 53 46 
3 19 56 48 
3 24 54 47 
3 30 54 5 
3 27 53 10 
3 31 55 15 
3 32 56 20 
3 25 60 44 
3 26 59 39 
3 41 58 40 
3 44 57 43 
3 46 53 27 
3 47 54 30 
3 45 55 31 
3 48 56 32 
3 42 57 50 
3 36 58 49 
3 44 60 51 
3 39 59 52 
3 52 59 34 
3 51 60 38 

CELL_TYPES 96
5
5
5
5
5
5
5
5
5
5
5
5
5
5
5
5
5
5
5
5
5
5
5
5
5
5
5
5
5
5
5
5
5
5
5
5
5
5
5
5
5
5
5
5
5
5
5
5
5
5
5
5
5
5
5
5
5
5
5
5
5
5
5
5
5
5
5
5
5
5
5
5
5
5
5
5
5
5
5
5
5
5
5
5
5
5
5
5
5
5
5
5
5
5
5
5

CELL_DATA 96
FIELD FieldData 1
radiation%20flux%20density 1 96 double
3.7116225965 3.7116225965 3.7116225965 3.7116225965 6.220040222 3.7116225965 3.7116225965 5.8965969402 3.7116225965 
3.7116225965 6.3249537808 6.1446523405 6.4470367356 5.7245577879 3.118920022 3.7116226032 5.0580418059e-101 3.121814176 
5.0580418059e-101 1.6357402065e-101 1.6357402065e-101 3.7116225965 3.1173551234 3.1145845323 3.7116225965 3.7116226013 1.0925488099e-124 
1.67533772e-128 4.807237643e-101 1.0925488099e-124 1.67533772e-128 3.7116225965 3.7116225966 3.1186459435 3.0586020855 3.0946681815 
3.7116225966 3.7116225965 5.1070999977e-101 3.0848444925 3.5741746143e-101 3.353049222e-101 3.7116226033 3.7116226274 6.4385499048 
6.3014640163 2.8869513693e-129 2.6164279107e-129 5.1807883453e-126 5.2355333002e-126 3.7116225965 3.7116225965 3.1037610315 3.1204928077 
3.103122404 3.1205149524 1.609494535e-180 1.609494535e-180 1.609494535e-180 1.609494535e-180 1.609494535e-180 1.609494535e-180 1.609494535e-180 
1.609494535e-180 3.7116225965 3.7116225965 4.0498471175 4.0698582985 3.7116225965 3.7116225965 4.6057989983 4.2825830746 
3.9978075955 4.0746769612 2.9805419043 2.9809823214 2.9977074211 2.9977500355 2.95477962 3.0035448243 3.0035448243 
2.95477962 3.7116226519 3.7116226028 3.711622635 3.711622654 3.7116225965 3.7116225965 3.7116225965 3.7116225965 
3.7116227101 3.7116226579 4.4569880482 4.1349219676 3.7116226111 3.711622678 
POINT_DATA 61
FIELD FieldData 1
radiation%20flux%20density 1 61 double
1.609494535e-180 1.609494535e-180 1.609494535e-180 1.609494535e-180 6.3780011094 0.98492654001 1.0396400073 1.0395486478 1.0343741347 
0.9936607738 1.0011816081 1.0406047253 1.0282814975 1.0345870105 0.9935139681 1.0011816081 1.0391183745 1.0195340285 
1.0401716508 0.99923580703 0.98492654001 1.0381948441 1.0315560605 1.0401642692 0.99925001185 2.8856641472 2.8916714642 
2.9959784838 2.8927726907 2.8872455574 2.8680945719 2.9953414763 2.8673719903 2.895405627 3.7679933536 4.1511800507 
3.7593201077 2.8906867514 3.7713285612 4.2060408345 2.8902544161 4.2727967059 3.7721316814 2.8851375093 4.4029491952 
2.8698617876 2.8698287525 2.9949618899 2.9949589657 5.2287481968 5.3600421311 5.3038709576 5.1808638823 1.9392299485 
1.9328304504 1.939141865 1.9328219275 3.8904579111 3.8258147121 3.7962824749 3.8606957142 
