# vtk DataFile Version 5.1
vtk output
ASCII
DATASET UNSTRUCTURED_GRID
POINTS 61 double
-0.6 -0.6 0 0.6 -0.6 0 0.6 0.6 0 
-0.6 0.6 0 0 0 0 -0.4 -0.6 0 
-0.2 -0.6 0 6.6613381478e-16 -0.6 0 0.2 -0.6 0 
0.4 -0.6 0 0.6 -0.4 0 0.6 -0.2 0 
0.6 6.6613381478e-16 0 0.6 0.2 0 0.6 0.4 0 
0.4 0.6 0 0.2 0.6 0 -6.6613381478e-16 0.6 0 
-0.2 0.6 0 -0.4 0.6 0 -0.6 0.4 0 
-0.6 0.2 0 -0.6 -6.6613381478e-16 0 -0.6 -0.2 0 
-0.6 -0.4 0 -0.088332399106 0.43353121176 0 -0.43353121176 -0.088332399106 0 
0.40841747107 -0.28277700638 0 0.098365396477 -0.42773865803 0 0.42773865803 0.098365396477 0 
-0.29915252614 -0.43064559099 0 0.28277700638 0.40841747107 0 -0.43064559099 0.29915252614 0 
-0.10013118828 -0.42759398766 0 -0.20781352442 -0.27458104075 0 -0.0060623725765 -0.26932681281 0 
0.19654300579 -0.27981612736 0 -0.42855941329 0.10180335451 0 -0.27474194502 0.20809221879 0 
-0.27627251382 0.017148940826 0 0.42968185474 -0.087368937613 0 0.25358983849 9.3513224001e-16 0 
0.27719329831 0.19755340122 0 0.089041103842 0.43064728037 0 -9.3611199873e-16 0.25358983849 0 
0.44021646687 0.29298768454 0 0.2928192853 -0.44065360504 0 -0.4176849844 -0.28566219856 0 
-0.28567861737 0.4177134226 0 0.1 -0.12679491924 0 0.12679491924 0.1 0 
-0.10384694829 0.12210748587 0 -0.12288196948 -0.10311927111 0 0.45358983849 -0.45358983849 0 
-0.45358983849 -0.45358983849 0 0.45358983849 0.45358983849 0 -0.45358983849 0.45358983849 0 
0.1476383677 0.28308824116 0 0.28288662677 -0.14773537411 0 -0.28834516088 -0.13980201577 0 
-0.13980201577 0.28834516088 0 
CELLS 97 288
OFFSETS vtktypeint64
0 3 6 9 12 15 18 21 24 
27 30 33 36 39 42 45 48 51 
54 57 60 63 66 69 72 75 78 
81 84 87 90 93 96 99 102 105 
108 111 114 117 120 123 126 129 132 
135 138 141 144 147 150 153 156 159 
162 165 168 171 174 177 180 183 186 
189 192 195 198 201 204 207 210 213 
216 219 222 225 228 231 234 237 240 
243 246 249 252 255 258 261 264 267 
270 273 276 279 282 285 288 
CONNECTIVITY vtktypeint64
38 48 32 34 47 30 42 45 31 
36 46 27 44 51 50 38 60 48 
34 59 47 39 52 51 27 58 36 
31 57 42 50 51 4 41 50 49 
51 52 4 49 52 35 6 33 30 
33 35 34 8 28 7 11 40 27 
13 29 12 18 25 17 23 26 22 
37 38 32 16 43 31 21 37 32 
33 34 30 37 39 38 11 27 10 
6 30 5 7 33 6 16 31 15 
21 32 20 25 44 43 26 39 37 
28 33 7 25 43 17 26 37 22 
28 35 33 29 41 40 12 40 11 
29 40 12 17 43 16 22 37 21 
28 36 35 29 42 41 49 50 4 
4 52 49 14 45 13 9 46 8 
19 48 18 24 47 23 28 46 36 
29 45 42 13 45 29 23 47 26 
8 46 28 18 48 25 5 54 0 
10 53 1 15 55 2 20 56 3 
0 54 24 1 53 9 2 55 14 
3 56 19 40 58 27 43 57 31 
35 52 34 39 51 38 48 60 25 
47 59 26 50 57 44 49 58 41 
36 49 35 42 50 41 14 55 45 
9 53 46 19 56 48 24 54 47 
30 54 5 27 53 10 31 55 15 
32 56 20 25 60 44 26 59 39 
41 58 40 44 57 43 46 53 27 
47 54 30 45 55 31 48 56 32 
42 57 50 36 58 49 44 60 51 
39 59 52 52 59 34 51 60 38 

CELL_TYPES 96
5
5
5
5
5
5
5
5
5
5
5
5
5
5
5
5
5
5
5
5
5
5
5
5
5
5
5
5
5
5
5
5
5
5
5
5
5
5
5
5
5
5
5
5
5
5
5
5
5
5
5
5
5
5
5
5
5
5
5
5
5
5
5
5
5
5
5
5
5
5
5
5
5
5
5
5
5
5
5
5
5
5
5
5
5
5
5
5
5
5
5
5
5
5
5
5

CELL_DATA 96
FIELD FieldData 1
radiation%20flux%20density 1 96 double
1.597270645e-23 1.640487611e-23 3.920861495e-23 3.4633927495e-23 3.2403430724 6.7229023001e-18 1.4882682887e-18 2.8712011471 4.7666876176e-17 
4.9001338749e-17 3.9919059753 3.1320471665 3.9119873968 2.7648478214 3.1875107165e-38 2.5131177636e-08 5.0580418059e-101 2.7781903884e-36 
5.0580418059e-101 1.6357402065e-101 1.6357402065e-101 1.3871814875e-19 2.1432807267e-36 3.9491496492e-39 6.0219047966e-19 1.7895188401e-08 1.0925488099e-124 
1.67533772e-128 4.807237643e-101 1.0925488099e-124 1.67533772e-128 6.79264476e-17 1.6058104249e-18 7.5370501339e-38 3.2747085735e-36 4.3404649846e-38 
8.5523188155e-19 5.7360730018e-17 5.1070999977e-101 3.6804181205e-36 3.5741746143e-101 3.353049222e-101 2.5595242804e-08 1.1665166552e-07 3.9084788552 
3.876256009 2.8869513693e-129 2.6164279107e-129 5.1807883453e-126 5.2355333002e-126 2.5431186483e-19 1.3024237305e-18 6.7814000711e-37 2.7726431389e-38 
4.4568048104e-38 7.0240864546e-37 1.609494535e-180 1.609494535e-180 1.609494535e-180 1.609494535e-180 1.609494535e-180 1.609494535e-180 1.609494535e-180 
1.609494535e-180 3.2506891469e-17 3.1405272371e-17 0.74136998744 0.77564160066 4.9721921465e-18 8.5708745219e-19 1.4649884646 1.2453405362 
0.63049438671 0.78872182636 5.4558144256e-67 3.86439406e-67 4.7814657352e-68 5.1783009519e-68 4.6485112176e-68 4.175513294e-67 5.9096959381e-67 
4.2931054585e-68 2.0968110332e-07 2.3496860842e-08 1.4550238405e-07 2.1728079493e-07 1.5120504667e-47 1.0036509187e-48 1.7232668027e-47 9.368099428e-49 
4.17106657e-07 2.2650419537e-07 1.2453916539 0.92050403483 5.2598483211e-08 2.9648845067e-07 
POINT_DATA 61
FIELD FieldData 1
radiation%20flux%20density 1 61 double
1.609494535e-180 1.609494535e-180 1.609494535e-180 1.609494535e-180 3.9221570591 1.5495037392e-68 1.0625035722e-38 2.5123500446e-38 1.4856016035e-38 
1.2881313533e-67 1.3918377647e-67 9.2606346281e-37 1.2268060402e-36 2.2604666904e-37 1.8186048085e-67 1.969898646e-67 7.1442690891e-37 1.0915695245e-36 
2.3413621515e-37 1.5938219117e-68 1.4310351528e-68 1.3163832164e-39 1.4468216615e-38 9.2421437963e-39 1.7261003173e-68 3.4946850566e-08 3.9161434741e-09 
1.1453400326e-17 4.2658738009e-09 1.9441944263e-08 1.0036781409e-19 1.1486664333e-17 2.3122353575e-20 4.1885296062e-09 0.12356167753 0.68945204106 
0.1050824398 2.9825314004e-09 0.12927365251 0.76122447067 2.4250397356e-08 0.86101829853 0.13145372669 3.6213465838e-08 0.99178726964 
2.1707715652e-19 4.2391083126e-20 3.3505316369e-19 1.6707300599e-18 2.2224950002 2.3609265396 2.2909244489 2.1551666356 3.0241009333e-48 
2.0073018375e-49 3.4465336054e-48 1.8736198856e-49 0.2929978198 0.24906818164 0.18410082218 0.24907843201 
