# vtk DataFile Version 4.2
vtk output
ASCII
DATASET UNSTRUCTURED_GRID
POINTS 4013 double
0 0 0 7 0 0 0 7 0 
7 7 0 1 1 0 2 1 0 
2 2 0 1 2 0 5 2 0 
5 1 0 6 1 0 6 2 0 
3 2 0 3 1 0 4 1 0 
4 2 0 5 3 0 6 3 0 
6 4 0 5 4 0 5 5 0 
4 5 0 4 4 0 3 4 0 
3 5 0 2 5 0 2 4 0 
1 4 0 1 3 0 2 3 0 
2 6 0 1 6 0 1 5 0 
6 5 0 6 6 0 5 6 0 
3 3 0 4 3 0 0.125 0 0 
0.25 0 0 0.375 0 0 0.5 0 0 
0.625 0 0 0.75 0 0 0.875 0 0 
1 0 0 1.125 0 0 1.25 0 0 
1.375 0 0 1.5 0 0 1.625 0 0 
1.75 0 0 1.875 0 0 2 0 0 
2.125 0 0 2.25 0 0 2.375 0 0 
2.5 0 0 2.625 0 0 2.75 0 0 
2.875 0 0 3 0 0 3.125 0 0 
3.25 0 0 3.375 0 0 3.5 0 0 
3.625 0 0 3.75 0 0 3.875 0 0 
4 0 0 4.125 0 0 4.25 0 0 
4.375 0 0 4.5 0 0 4.625 0 0 
4.75 0 0 4.875 0 0 5 0 0 
5.125 0 0 5.25 0 0 5.375 0 0 
5.5 0 0 5.625 0 0 5.75 0 0 
5.875 0 0 6 0 0 6.125 0 0 
6.25 0 0 6.375 0 0 6.5 0 0 
6.625 0 0 6.75 0 0 6.875 0 0 
0 6.875 0 0 6.75 0 0 6.625 0 
0 6.5 0 0 6.375 0 0 6.25 0 
0 6.125 0 0 6 0 0 5.875 0 
0 5.75 0 0 5.625 0 0 5.5 0 
0 5.375 0 0 5.25 0 0 5.125 0 
0 5 0 0 4.875 0 0 4.75 0 
0 4.625 0 0 4.5 0 0 4.375 0 
0 4.25 0 0 4.125 0 0 4 0 
0 3.875 0 0 3.75 0 0 3.625 0 
0 3.5 0 0 3.375 0 0 3.25 0 
0 3.125 0 0 3 0 0 2.875 0 
0 2.75 0 0 2.625 0 0 2.5 0 
0 2.375 0 0 2.25 0 0 2.125 0 
0 2 0 0 1.875 0 0 1.75 0 
0 1.625 0 0 1.5 0 0 1.375 0 
0 1.25 0 0 1.125 0 0 1 0 
0 0.875 0 0 0.75 0 0 0.625 0 
0 0.5 0 0 0.375 0 0 0.25 0 
0 0.125 0 7 0.125 0 7 0.25 0 
7 0.375 0 7 0.5 0 7 0.625 0 
7 0.75 0 7 0.875 0 7 1 0 
7 1.125 0 7 1.25 0 7 1.375 0 
7 1.5 0 7 1.625 0 7 1.75 0 
7 1.875 0 7 2 0 7 2.125 0 
7 2.25 0 7 2.375 0 7 2.5 0 
7 2.625 0 7 2.75 0 7 2.875 0 
7 3 0 7 3.125 0 7 3.25 0 
7 3.375 0 7 3.5 0 7 3.625 0 
7 3.75 0 7 3.875 0 7 4 0 
7 4.125 0 7 4.25 0 7 4.375 0 
7 4.5 0 7 4.625 0 7 4.75 0 
7 4.875 0 7 5 0 7 5.125 0 
7 5.25 0 7 5.375 0 7 5.5 0 
7 5.625 0 7 5.75 0 7 5.875 0 
7 6 0 7 6.125 0 7 6.25 0 
7 6.375 0 7 6.5 0 7 6.625 0 
7 6.75 0 7 6.875 0 6.875 7 0 
6.75 7 0 6.625 7 0 6.5 7 0 
6.375 7 0 6.25 7 0 6.125 7 0 
6 7 0 5.875 7 0 5.75 7 0 
5.625 7 0 5.5 7 0 5.375 7 0 
5.25 7 0 5.125 7 0 5 7 0 
4.875 7 0 4.75 7 0 4.625 7 0 
4.5 7 0 4.375 7 0 4.25 7 0 
4.125 7 0 4 7 0 3.875 7 0 
3.75 7 0 3.625 7 0 3.5 7 0 
3.375 7 0 3.25 7 0 3.125 7 0 
3 7 0 2.875 7 0 2.75 7 0 
2.625 7 0 2.5 7 0 2.375 7 0 
2.25 7 0 2.125 7 0 2 7 0 
1.875 7 0 1.75 7 0 1.625 7 0 
1.5 7 0 1.375 7 0 1.25 7 0 
1.125 7 0 1 7 0 0.875 7 0 
0.75 7 0 0.625 7 0 0.5 7 0 
0.375 7 0 0.25 7 0 0.125 7 0 
1.125 1 0 1.25 1 0 1.375 1 0 
1.5 1 0 1.625 1 0 1.75 1 0 
1.875 1 0 2 1.125 0 2 1.25 0 
2 1.375 0 2 1.5 0 2 1.625 0 
2 1.75 0 2 1.875 0 1.875 2 0 
1.75 2 0 1.625 2 0 1.5 2 0 
1.375 2 0 1.25 2 0 1.125 2 0 
1 1.875 0 1 1.75 0 1 1.625 0 
1 1.5 0 1 1.375 0 1 1.25 0 
1 1.125 0 5 1.875 0 5 1.75 0 
5 1.625 0 5 1.5 0 5 1.375 0 
5 1.25 0 5 1.125 0 5.125 1 0 
5.25 1 0 5.375 1 0 5.5 1 0 
5.625 1 0 5.75 1 0 5.875 1 0 
6 1.125 0 6 1.25 0 6 1.375 0 
6 1.5 0 6 1.625 0 6 1.75 0 
6 1.875 0 5.875 2 0 5.75 2 0 
5.625 2 0 5.5 2 0 5.375 2 0 
5.25 2 0 5.125 2 0 2.125 2 0 
2.25 2 0 2.375 2 0 2.5 2 0 
2.625 2 0 2.75 2 0 2.875 2 0 
3 1.875 0 3 1.75 0 3 1.625 0 
3 1.5 0 3 1.375 0 3 1.25 0 
3 1.125 0 3.125 1 0 3.25 1 0 
3.375 1 0 3.5 1 0 3.625 1 0 
3.75 1 0 3.875 1 0 4 1.125 0 
4 1.25 0 4 1.375 0 4 1.5 0 
4 1.625 0 4 1.75 0 4 1.875 0 
4.125 2 0 4.25 2 0 4.375 2 0 
4.5 2 0 4.625 2 0 4.75 2 0 
4.875 2 0 5 2.125 0 5 2.25 0 
5 2.375 0 5 2.5 0 5 2.625 0 
5 2.75 0 5 2.875 0 5.125 3 0 
5.25 3 0 5.375 3 0 5.5 3 0 
5.625 3 0 5.75 3 0 5.875 3 0 
6 3.125 0 6 3.25 0 6 3.375 0 
6 3.5 0 6 3.625 0 6 3.75 0 
6 3.875 0 5.875 4 0 5.75 4 0 
5.625 4 0 5.5 4 0 5.375 4 0 
5.25 4 0 5.125 4 0 5 4.125 0 
5 4.25 0 5 4.375 0 5 4.5 0 
5 4.625 0 5 4.75 0 5 4.875 0 
4.875 5 0 4.75 5 0 4.625 5 0 
4.5 5 0 4.375 5 0 4.25 5 0 
4.125 5 0 4 4.875 0 4 4.75 0 
4 4.625 0 4 4.5 0 4 4.375 0 
4 4.25 0 4 4.125 0 3.875 4 0 
3.75 4 0 3.625 4 0 3.5 4 0 
3.375 4 0 3.25 4 0 3.125 4 0 
3 4.125 0 3 4.25 0 3 4.375 0 
3 4.5 0 3 4.625 0 3 4.75 0 
3 4.875 0 2.875 5 0 2.75 5 0 
2.625 5 0 2.5 5 0 2.375 5 0 
2.25 5 0 2.125 5 0 2 4.875 0 
2 4.75 0 2 4.625 0 2 4.5 0 
2 4.375 0 2 4.25 0 2 4.125 0 
1.875 4 0 1.75 4 0 1.625 4 0 
1.5 4 0 1.375 4 0 1.25 4 0 
1.125 4 0 1 3.875 0 1 3.75 0 
1 3.625 0 1 3.5 0 1 3.375 0 
1 3.25 0 1 3.125 0 1.125 3 0 
1.25 3 0 1.375 3 0 1.5 3 0 
1.625 3 0 1.75 3 0 1.875 3 0 
2 2.875 0 2 2.75 0 2 2.625 0 
2 2.5 0 2 2.375 0 2 2.25 0 
2 2.125 0 2 5.125 0 2 5.25 0 
2 5.375 0 2 5.5 0 2 5.625 0 
2 5.75 0 2 5.875 0 1.875 6 0 
1.75 6 0 1.625 6 0 1.5 6 0 
1.375 6 0 1.25 6 0 1.125 6 0 
1 5.875 0 1 5.75 0 1 5.625 0 
1 5.5 0 1 5.375 0 1 5.25 0 
1 5.125 0 1.125 5 0 1.25 5 0 
1.375 5 0 1.5 5 0 1.625 5 0 
1.75 5 0 1.875 5 0 5.125 5 0 
5.25 5 0 5.375 5 0 5.5 5 0 
5.625 5 0 5.75 5 0 5.875 5 0 
6 5.125 0 6 5.25 0 6 5.375 0 
6 5.5 0 6 5.625 0 6 5.75 0 
6 5.875 0 5.875 6 0 5.75 6 0 
5.625 6 0 5.5 6 0 5.375 6 0 
5.25 6 0 5.125 6 0 5 5.875 0 
5 5.75 0 5 5.625 0 5 5.5 0 
5 5.375 0 5 5.25 0 5 5.125 0 
3 2.125 0 3 2.25 0 3 2.375 0 
3 2.5 0 3 2.625 0 3 2.75 0 
3 2.875 0 3.125 3 0 3.25 3 0 
3.375 3 0 3.5 3 0 3.625 3 0 
3.75 3 0 3.875 3 0 4 2.875 0 
4 2.75 0 4 2.625 0 4 2.5 0 
4 2.375 0 4 2.25 0 4 2.125 0 
3.875 2 0 3.75 2 0 3.625 2 0 
3.5 2 0 3.375 2 0 3.25 2 0 
3.125 2 0 2 3.125 0 2 3.25 0 
2 3.375 0 2 3.5 0 2 3.625 0 
2 3.75 0 2 3.875 0 2.125 4 0 
2.25 4 0 2.375 4 0 2.5 4 0 
2.625 4 0 2.75 4 0 2.875 4 0 
3 3.875 0 3 3.75 0 3 3.625 0 
3 3.5 0 3 3.375 0 3 3.25 0 
3 3.125 0 2.875 3 0 2.75 3 0 
2.625 3 0 2.5 3 0 2.375 3 0 
2.25 3 0 2.125 3 0 4 3.125 0 
4 3.25 0 4 3.375 0 4 3.5 0 
4 3.625 0 4 3.75 0 4 3.875 0 
4.125 4 0 4.25 4 0 4.375 4 0 
4.5 4 0 4.625 4 0 4.75 4 0 
4.875 4 0 5 3.875 0 5 3.75 0 
5 3.625 0 5 3.5 0 5 3.375 0 
5 3.25 0 5 3.125 0 4.875 3 0 
4.75 3 0 4.625 3 0 4.5 3 0 
4.375 3 0 4.25 3 0 4.125 3 0 
1.887575619 1.5714876988 0 1.1107249392 1.4359051369 0 1.4375 1.8917468245 0 
1.5625 1.1082531755 0 1.3098559939 1.1070357462 0 1.8879629844 1.3016592932 0 
1.687189134 1.8955068139 0 1.1182626851 1.6692259739 0 1.8119703288 1.1058465056 0 
1.8792304632 1.8130906424 0 1.1875 1.8917468245 0 1.1094851922 1.2033420656 0 
1.4370234726 1.1080709742 0 1.4998847191 1.2164966877 0 1.6249807865 1.2165047404 0 
1.5624775843 1.3247576474 0 1.4356051932 1.3236322156 0 1.4996804629 1.4328245036 0 
1.6249430079 1.4329810223 0 1.5624372451 1.5412292311 0 1.4374362847 1.5412284033 0 
1.5 1.6495190528 0 1.6249895409 1.6495129451 0 1.3749893808 1.6495128072 0 
1.3124876109 1.5412585907 0 1.5625 1.7577722283 0 1.25 1.6495190528 0 
1.3133247279 1.7523683915 0 1.6866188091 1.7523230899 0 1.7670612806 1.6402138216 0 
1.187585964 1.5449925944 0 1.25 1.4330127019 0 1.1778732194 1.3232140481 0 
1.3014840143 1.317882982 0 1.2355956823 1.2135264975 0 1.6838577692 1.326847018 0 
1.7451254839 1.4342201171 0 1.7689004215 1.2271514487 0 1.6875 1.5412658774 0 
1.372782261 1.4316398995 0 1.3722967487 1.2155133675 0 1.6905585895 1.1096259784 0 
1.8719099127 1.435584842 0 1.8896545056 1.690451448 0 1.5625 1.8917468245 0 
1.3125 1.8917468245 0 1.4375 1.7577722283 0 1.8959539776 1.1864136941 0 
1.8081462788 1.9070743513 0 1.1034157831 1.8066379932 0 1.1911333561 1.1028269136 0 
1.794305897 1.7442868009 0 1.2010889394 1.7499266505 0 1.7918344592 1.5245544714 0 
1.0845357012 1.5625 0 1.7915513143 1.3450925438 0 1.0773375545 1.3125 0 
1.0915063509 1.0915063509 0 1.9084936491 1.0915063509 0 1.9084936491 1.9084936491 0 
1.0915063509 1.9084936491 0 1.375 1.8247595264 0 1.5 1.8247595264 0 
1.625 1.8247595264 0 1.260161346 1.8246930337 0 1.7489644266 1.8253550026 0 
1.8892750608 3.5640948631 0 1.4375 3.8917468245 0 1.112424381 3.4285123012 0 
1.5625 3.1082531755 0 1.6901440061 3.8929642538 0 1.1120370156 3.6983407068 0 
1.312810866 3.1044931861 0 1.8817373149 3.3307740261 0 1.1880296712 3.8941534944 0 
1.1207695368 3.1869093576 0 1.8125 3.1082531755 0 1.8905148078 3.7966579344 0 
1.3125882785 3.8921479362 0 1.3750147131 3.783560501 0 1.5000383119 3.7834840874 0 
1.4375088375 3.675250022 0 1.5643797155 3.6763658585 0 1.5003147588 3.5671764537 0 
1.3750539327 3.5670204154 0 1.4375614486 3.4587711681 0 1.5625627012 3.4587718228 0 
1.5 3.3504809472 0 1.3750102414 3.3504871214 0 1.6250104502 3.3504872305 0 
1.6875121919 3.4587414532 0 1.4375 3.2422277717 0 1.75 3.3504809472 0 
1.6866752618 3.2476316108 0 1.3133811777 3.2476769141 0 1.2329386864 3.3597861884 0 
1.8124140193 3.4550074094 0 1.75 3.5669872981 0 1.8221267806 3.6767859519 0 
1.6985159857 3.682117018 0 1.7644043177 3.7864735025 0 1.3161387078 3.6731653735 0 
1.2548734191 3.5657821877 0 1.2311110435 3.7729169434 0 1.5629829127 3.8919274322 0 
1.6875 3.1082531755 0 1.6272142255 3.5683599841 0 1.6276959661 3.7844846985 0 
1.5625 3.2422277717 0 1.1280899306 3.5644154872 0 1.1103454904 3.3095485532 0 
1.4375 3.1082531755 0 1.3125 3.4587341226 0 1.1918537212 3.0929256487 0 
1.8965842169 3.1933620068 0 1.1040473873 3.8135944479 0 1.8088666439 3.8971730864 0 
1.2056940929 3.2557132022 0 1.7989110606 3.2500733495 0 1.2081652834 3.4754460574 0 
1.9154642988 3.4375 0 1.2084500233 3.6549241397 0 1.9226624455 3.6875 0 
1.9084936491 3.9084936491 0 1.0915063509 3.0915063509 0 1.0915063509 3.9084936491 0 
1.9084936491 3.0915063509 0 1.375 3.1752404736 0 1.625 3.1752404736 0 
1.5 3.1752404736 0 1.7398386532 3.1753069664 0 1.2510355734 3.1746449974 0 
1.5625 5.8917468245 0 1.5625 5.1082531755 0 1.1110678776 5.5636502499 0 
1.8892750608 5.5640948631 0 1.117132183 5.3304612481 0 1.3135216272 5.8923366613 0 
1.8817373149 5.3307740261 0 1.3125 5.1082531755 0 1.8885060659 5.7959359385 0 
1.1132121559 5.8010217976 0 1.8125 5.1082531755 0 1.6875 5.8917468245 0 
1.6262862414 5.7832996166 0 1.5002143736 5.7834613103 0 1.5627501025 5.675202745 0 
1.4375 5.6752404736 0 1.5000416838 5.56698101 0 1.3750069473 5.5669862501 0 
1.4375081052 5.4587329 0 1.5625 5.4587341226 0 1.5000013509 5.3504807434 0 
1.375001576 5.3504807094 0 1.6250002251 5.3504809132 0 1.3125011579 5.6752402989 0 
1.6875 5.6752404736 0 1.6875000375 5.458734117 0 1.4375 5.2422277717 0 
1.75 5.3504809472 0 1.6866746408 5.2476312271 0 1.24685464 5.566066012 0 
[...]
CELL_DATA 7800
FIELD FieldData 1
flux 1 7800 double
4.7117621569e-05 3.4208843191e-05 2.3672129699e-06 2.504569686e-05 2.0038535379e-05 1.574594546e-06 5.6754891771e-08 9.4728711283e-08 7.7153216906e-08 
2.2179078664e-07 4.0924122219e-07 2.8601867051e-07 1.2173716174e-07 2.70391767e-05 1.7778756805e-05 2.4295493372e-05 2.8064585551e-07 2.1815015556e-07 
1.8919962377e-05 4.4806777692e-06 1.5613878101e-07 2.0631504875e-05 3.4334079929e-05 4.7227746842e-05 9.9771501788e-08 5.6724975518e-08 3.2228419297e-07 
1.9049123028e-07 3.9624244812e-07 3.3490558628e-06 5.0662789677e-06 2.8723760988e-06 6.0367439787e-06 2.9969961187e-06 1.5297560475e-05 7.3338559544e-07 
3.2652272472e-06 5.0979157272e-06 1.7336475556e-06 6.5787995071e-05 8.6808999154e-05 0.00011944746664 0.00017067307031 8.3138710206e-07 7.5728658089e-05 
5.2758022332e-07 8.0518741545e-05 9.5559910263e-05 2.4327379179e-06 7.1589329543e-07 1.3219215898e-06 7.9873272049e-05 6.6676282352e-05 1.2365655754e-06 
1.4593427269e-06 3.1272190241e-06 1.3398075556e-06 8.1817098091e-06 0.00017755899275 0.00014911515527 0.00014649926332 0.0001005633517 5.6057590308e-05 
0.00011906891271 0.00014644384774 0.00015734399155 0.00016261893174 1.8444301397e-06 7.0441483421e-06 8.1887699486e-07 6.587614692e-06 1.2547755997e-07 
1.7333039268e-06 3.0657841946e-05 6.3520892257e-06 4.2543434169e-07 3.7377489614e-08 6.9439255669e-07 6.5854650592e-06 7.3480256481e-07 2.6747047382e-06 
1.2913010647e-06 4.5638902224e-06 2.2689270892e-06 4.6385463733e-07 6.9820938032e-07 1.1985210062e-05 1.5486599656e-06 4.1322393765e-06 1.9358334223e-07 
2.6779437551e-06 7.3698731768e-06 4.5759866573e-07 7.394654821e-06 7.48185067e-06 4.0897019053e-06 2.9896810614e-05 2.3896676734e-05 4.2389922349e-05 
0.00010956415658 2.8442386445e-05 0.00017594888818 8.0817206531e-07 3.7713203109e-08 5.9570354044e-08 1.4464571708e-07 9.9678289734e-06 6.2006722772e-05 
0.000100790911 3.9080256385e-08 1.1917205238e-05 6.7601621075e-07 2.602245589e-06 1.1967301289e-05 6.4059798284e-08 1.8421030615e-07 0.00011617498679 
0.00011429283254 0.00014479755191 9.1865431209e-05 9.8411701735e-05 0.00015471595935 1.4849937917e-08 1.4663909488e-08 3.5208171916e-05 1.2900320698e-05 
7.5015766197e-06 1.1878267802e-05 1.1441945246e-05 1.7466590144e-06 1.0151225088e-05 0.00011397022931 7.0205006775e-05 4.6159264054e-05 1.2474166462e-07 
0.00010533268603 6.4171200522e-05 5.0506805649e-05 2.2952418367e-08 2.3491996608e-08 2.2218158765e-05 2.9163267208e-05 5.3029598839e-05 1.9922210908e-05 
4.4359593219e-05 1.3551115281e-05 5.6011982066e-05 1.253014244e-05 1.2918758197e-05 3.318772035e-05 2.2095129095e-05 3.5424157718e-05 5.9197595063e-05 
6.4368688448e-05 5.1869848126e-05 5.9169973074e-05 1.9139822997e-05 2.7134211284e-05 2.5643490223e-08 4.2142547444e-05 1.4147220423e-05 1.5214562501e-05 
2.671319595e-05 1.8689365096e-05 0.0079409404948 3.3838154339e-05 2.9883186241e-05 0.014112770367 0.0085756825715 0.0022316109361 0.014848499275 
0.0079681897906 0.0078212547696 0.001387926394 0.0025802970987 4.5003646097e-05 3.234268818e-05 3.1509215641e-05 0.0024500634292 0.0013243949248 
3.1826107778e-05 0.0064930371326 0.0044412109274 0.008677017241 0.0061894311717 2.2142112268e-05 0.004563923702 0.0043353234645 0.00074000428624 
0.0013721202178 0.00078614084991 0.00075076868941 0.00075590913007 0.0013320405669 0.0041841505927 0.00026496108055 0.00042388835447 0.0023931464511 
0.00012598416769 0.0005498934614 9.1400990312e-05 0.00042951285051 0.00013783955309 0.00074841433548 0.00067717637532 0.00040599207721 0.0023681969298 
0.0014363011216 0.00024382805592 0.0002430600504 0.0014334824701 0.00048304074857 9.6107315332e-05 0.00014817117353 0.00024548742061 0.00013906500246 
8.4977139143e-05 0.00024416226841 0.001300693075 0.00014140500046 0.0012213439195 0.0041856363456 0.039077371648 0.042386488952 0.039134524041 
0.00055032927699 0.00026441322964 0.0001486147589 0.00041752784145 0.002103542443 0.0027920614408 0.0010451952725 0.00046324321136 0.00024087338903 
0.00014213966545 1.1608332795e-05 8.5302689885e-06 2.0200823314e-05 0.00023754388109 0.00046326644857 0.0010428344931 0.0027513100565 0.0083101010471 
0.0001890544821 7.8784203974e-05 0.00044080803979 0.00024303306772 8.2444871175e-05 0.00022663268195 0.004279830209 1.2769315037e-05 1.7296202859e-05 
7.40667261e-05 1.3891936653e-05 1.2258027485e-05 7.912437142e-05 8.5003226073e-06 1.0609360091e-05 4.7975741581e-05 3.9872895392e-05 2.0373346176e-05 
2.171111595e-05 0.00014531709012 0.039569153146 0.015368397027 0.0083495114865 0.0042598292975 0.015827677923 0.02191565251 1.7760452083e-05 
0.00012984645672 0.007164888468 0.024958550143 0.025870812127 4.6712767551e-05 5.1962591406e-05 0.026193332807 0.025990560779 0.024051879387 
0.040006040295 9.7544579764e-05 5.7395235147e-05 0.02361447342 0.03928079672 9.4417782617e-05 5.5790241579e-05 2.5613723858e-05 5.1278818399e-05 
0.0038427161545 0.013671989297 5.3219942256e-05 0.047402015164 5.6851186792e-05 8.3817562592e-05 3.6180553904e-05 0.024163837108 0.047412882912 
0.0238077356 8.407290595e-05 0.013501203606 3.3617692795e-05 0.013470513771 0.0021189382844 0.00071727342962 0.00025547219135 0.00069281878511 
0.0011516503184 0.00046950982966 0.0013079999152 0.00018855747807 0.00013854764837 0.00038954685222 0.00025220137229 0.0020480817012 0.0038317701263 
4.8071850681e-05 5.1086597115e-05 0.014973741678 9.5135874854e-05 0.00010557128116 0.014582993388 8.875129426e-05 0.0034096046741 5.5324087711e-05 
5.0703147273e-05 2.5802761759e-06 8.3913366983e-08 0.00010151661674 6.4680969564e-05 1.710952568e-06 9.0482914609e-08 2.471831973e-07 0.00011741648452 
4.3977539529e-07 5.1035808558e-05 5.8706514337e-05 6.1096776525e-08 2.5036307235e-05 2.788587012e-05 1.0558730963e-05 1.4110182228e-05 4.8191781197e-06 
4.6805490837e-05 7.7537872043e-07 4.3093273817e-05 6.5718511548e-05 2.1532600695e-05 5.2428663189e-05 3.5603498371e-05 1.353006195e-06 1.6210409191e-07 
1.9125976416e-07 2.4307374105e-07 4.4445518455e-07 1.2764058546e-05 1.5093727527e-06 7.2378617873e-06 6.8932841196e-07 1.4774540905e-05 2.642080854e-06 
3.9292379923e-07 1.5762287057e-06 1.0126552321e-06 3.9732846989e-06 1.210146243e-05 2.6670616081e-05 1.2784164075e-06 0.00012701878273 4.631700962e-06 
5.5767510791e-07 5.1903925127e-06 2.8297467686e-06 1.4158134511e-05 7.8211348903e-05 7.7953669562e-05 3.385976357e-06 0.00030337869423 0.0003695340525 
0.00035728194906 6.1524995219e-06 6.6509556357e-06 3.2929413451e-06 2.2156428948e-07 4.2298701408e-08 4.6269657854e-07 6.782263071e-06 0.0001720434161 
0.00017569713336 0.00016790205515 0.00014351073826 0.00014252018541 2.6935422183e-05 6.0133736369e-06 3.4316236186e-06 1.868091357e-06 4.1496084693e-06 
7.0648346943e-06 1.5689988195e-07 8.7506517999e-07 8.527403909e-06 9.8687361841e-05 6.0015027638e-07 2.3306828052e-06 2.2436307178e-07 1.3836716747e-06 
9.2771094156e-05 7.0589001428e-05 4.0754086755e-07 2.9676743688e-06 7.6542623506e-06 7.4253979556e-06 5.3340190785e-06 3.7256666668e-07 1.5170265454e-05 
1.3593857142e-05 8.5188552935e-07 1.0945384762e-06 1.627689277e-06 2.3728590664e-06 2.4826774546e-05 1.0760099409e-07 0.00031044281267 6.0549989512e-05 
3.0501095686e-05 6.0960655824e-08 0.00011329486639 8.6763658073e-07 0.00012555866928 1.0585911778e-05 0.00015955641693 1.0234083714e-07 2.2569805994e-05 
0.00018349219934 0.00021201405871 2.0714161712e-07 7.2902735866e-08 2.7988145974e-06 7.3466190393e-07 0.00021900779889 0.00024378878385 9.7366880467e-05 
0.00015322844447 0.00036998901735 0.00025241217961 0.00033911606066 0.00020931128454 2.1451801121e-08 1.919328188e-08 7.9983224957e-06 2.7959988235e-05 
1.2408395371e-05 9.7182868853e-05 0.0004022088854 1.3778535984e-07 1.9049128168e-06 0.00019042411632 0.00010086192378 3.5195076616e-08 4.9367165497e-05 
0.00044422637449 0.00011175291862 0.00022039849392 3.0718175019e-08 0.00014216391719 2.3711887865e-05 2.6552950534e-05 1.6635152708e-05 1.3240506605e-05 
1.3961429074e-05 2.1871255988e-05 5.9736951151e-05 5.162836645e-05 4.7207604175e-05 3.0690046834e-05 2.1745799794e-05 3.2114221293e-05 3.7820913206e-05 
3.3877341341e-05 5.2970505601e-05 6.1235978289e-05 3.8647670575e-08 0.00012464991764 0.0001240682705 6.2937121994e-05 1.5093163968e-05 2.9637656556e-05 
0.029629167087 0.018077911958 0.010850539791 0.00010753279079 0.0083858189103 0.00013278712106 0.053442192374 0.0025908150152 0.006633986392 
0.0017022782864 0.041507263974 0.029141003205 0.0005941811283 0.00032162860056 0.001418073634 0.0034008433899 0.032587268098 0.015252725103 
0.00083801251211 0.0026207081163 0.0072492208927 0.011138175957 0.0066481433473 6.6714127349e-05 0.00099629462963 3.8650291112e-05 4.7509730992e-05 
0.010525178794 0.019162131978 0.0019778855621 0.0094166936587 0.0090039700414 0.004599649414 0.011942787982 0.030113441457 0.00031475444524 
0.00011859986981 0.00050217216625 0.0038547326328 0.0011847165345 0.00020902998295 0.00023393327628 6.9002174024e-05 6.1841736882e-05 0.04646922878 
0.033697606965 0.079548336165 0.05952765198 0.035457478137 0.0192606397 0.021775952687 0.012374265483 0.003762065176 0.0012349017886 
0.00076246795404 0.00050792387818 0.00030480346607 0.00051697754373 0.00020501315442 0.00015915819872 0.00046472069751 0.00061777956943 0.00010946884212 
0.025949405756 0.044455505391 0.02456613488 0.015881935052 0.016947042371 0.0020862387323 0.00072227807262 0.00073599130711 0.00026231372782 
0.00095715849467 0.00012832962027 0.00047328691932 0.00010988587553 0.03607883971 0.060216246658 0.10712863744 0.079308648512 0.043163286208 
0.025788803036 0.0065585676593 0.0021266168527 0.0012906759989 0.00042626074664 0.00010278407005 0.00027860631913 0.0016146836181 0.00016288315401 
0.0040445745169 0.0036734983141 0.0052124548572 7.3610451306e-05 0.0040563421969 0.10818837251 0.00023735829599 0.028259544859 0.020740702736 
0.00086283534913 0.059885611938 6.6453884619e-05 0.0017326824472 0.0027285589665 0.005282463192 0.0035244660404 0.0099263188082 0.00024875094306 
0.00013685351246 0.0016273673999 0.0023173544715 0.00068354093335 0.0016685525741 0.013740729569 0.022304015222 0.16021631451 0.16005582526 
6.3833007627e-05 6.3048318854e-05 0.014195773536 0.022997335442 0.0042317625203 0.0037198635849 0.0088162906425 7.0968146072e-05 0.0042317004057 
0.0057746782645 5.7685594347e-05 0.00023617927785 0.0012166384267 0.0071285715935 0.0064838890053 0.089799774259 5.1807488297e-05 0.0012269960402 
0.0060200278906 5.0665257655e-05 0.016585599918 0.089525720407 0.017821616249 7.2057605792e-05 0.00036726206541 0.00047316684301 0.00024142711039 
0.0008012615971 0.00025713458377 0.0001037653298 0.00013591019683 0.00073560607656 9.9756842164e-05 0.00016278549382 6.4976099105e-05 5.4502012995e-05 
4.4752601238e-05 0.061065985795 0.0088463363158 0.001699189774 0.0012345850488 0.008222612296 0.002289128512 5.5143321315e-05 0.0027723809742 
0.0032730796169 0.00017566748495 0.0080504318458 0.0016363352006 0.00021670112352 0.014263192649 0.02102320438 0.017938200794 0.035629269927 
0.014317349657 0.0091508619235 0.003596845115 0.010541510855 0.0056297028909 0.00073064207683 0.00043378734918 0.0045011308852 0.0059665011323 
0.00010737687021 0.0051339673284 0.0079190533628 0.0059247413531 0.0037315052274 0.0010241765014 0.011960545469 0.031845594132 0.00049417666102 
0.0092163169495 0.034496342379 0.037276349421 0.021346905992 0.00011513123382 0.00044804590909 0.000224173359 0.0039650647737 0.0017753102656 
0.012360673492 0.0092683925449 0.0037679804086 0.0021190829393 0.0014644117085 0.0020727992508 0.00076346114972 0.00088680971323 0.00049709155848 
0.00026451849268 0.00070789327274 0.00019633830351 0.00029169752449 0.00010723046419 0.0021491132224 0.0014610346306 0.0029846953044 0.044204835183 
0.026962660904 0.00010956993371 0.00056685134905 0.016172881747 0.0066415315357 0.0027273622751 0.0065268290676 0.0012392178766 0.0012991365344 
0.00043382793614 0.00029844421625 0.0011948488031 0.00012672213643 0.0037030779355 0.078930147807 0.061259406315 0.047627499525 0.029644656992 
0.002198037746 0.00097210191046 0.00054483087253 0.00032260265426 0.00018982233784 0.00020572199442 0.0012075305135 0.034862425315 0.06047653422 
0.10618494784 0.021606366213 0.0047023830635 0.0032969244274 0.00072497826499 0.0017375502967 0.00047981891071 0.0052037625021 0.0001710572515 
0.0010551823646 0.00029288778797 0.00085888913932 0.00049782359844 0.00017141596913 0.012282055044 5.4098588805e-05 6.9997390552e-05 0.00038341082153 
0.0056072460937 8.7096821735e-05 0.027944439977 0.019262980792 0.10873442718 0.060851172265 0.026574195779 7.0843331427e-05 0.0028353700295 
0.019943165303 0.032385054962 0.00021794433765 0.035955665187 0.029375932814 0.0020876829589 0.050587890384 0.064248001768 0.016983103684 
0.16073000901 0.025749421353 0.16064562797 0.00014881607213 0.00011224694302 0.014114740504 0.02286911328 9.2088973231e-05 9.7988651623e-05 
0.0029649349358 0.010294924518 0.052361294759 0.00035095421919 0.0010844183579 0.0081160210169 0.01757719501 7.5683182429e-05 0.093081936435 
0.019290224183 0.0065115001366 0.00012499481021 0.085282399887 0.089524210489 0.0012705252024 0.0004029597112 0.00068199287525 0.00010067594961 
0.00021726453295 0.00032515049294 0.0001280075856 0.00023323066004 0.0001494765644 0.00062047728156 9.6600166815e-05 0.001035850635 0.0023923731799 
8.0079969527e-05 0.0089530380679 0.010071129701 7.4581824473e-05 6.5784007949e-05 0.057899443078 6.1991512779e-05 0.0020523730187 6.7651458508e-05 
0.012309717662 2.724563358e-05 0.0072446983044 0.012596217541 1.7712517639e-05 0.0072905350668 7.3997857732e-05 6.8625094739e-05 3.360111415e-05 
3.2931593066e-05 0.00010233252373 2.1264224186e-05 2.5463555699e-05 0.007826458542 2.5623124327e-05 0.00013151571464 8.6705344912e-05 0.0078135338571 
0.0068818292117 0.0070739625738 7.4576846275e-05 0.00013591959077 4.6305961694e-05 0.013164617198 4.7953239377e-05 8.5095264672e-05 0.0014710897638 
0.00025049238608 0.00071387365139 0.0012655993099 0.021520528972 0.0045119482993 0.039388458345 0.00039755465437 0.00024667407832 0.00055997019918 
0.0042719452657 0.021198983712 0.00076978477951 0.0012532708077 0.0022968791877 0.00071185811071 0.00013285823919 0.0022195425469 0.0043138949255 
0.0005627353207 0.00023840880285 0.001458798726 0.0014228165558 0.00027121579421 0.0004094036384 0.0022858627112 0.0012783382025 0.00040481632942 
0.0022807974143 0.0012330596994 0.00023501127884 0.0013288937465 7.947464495e-05 0.041869071825 0.040543120554 0.0022733612632 0.0045998467614 
0.00075240523782 0.0022246099852 0.00024408428478 0.0084598945523 0.0028324138029 0.0010688946904 0.00047230257876 0.00024397042695 2.0747468721e-05 
8.0696936206e-06 1.0853070345e-05 0.0002314759093 0.00047213315954 0.0010593969615 0.0028070999256 0.0083114806932 0.00050185126495 0.00019245873485 
0.00041082432869 0.0007188591938 4.6075484695e-05 4.4585887522e-05 0.00072798964219 0.00022979401325 0.00043905609428 0.00013222785541 0.00023062297353 
7.7445476675e-05 0.023987022088 2.6105157327e-05 5.8687647021e-05 0.00012280781442 0.0091398605916 0.013300771693 0.000142258583 0.040041394499 
0.00012646132433 1.7345916549e-05 8.9382639566e-05 0.041436902116 1.6163806747e-05 0.014868582519 0.0001438059823 0.00012995878714 1.7806195753e-05 
0.022588793145 4.6237543117e-05 4.0486069865e-05 0.0043092067946 1.2561640365e-05 1.1142834241e-05 0.0042536480467 1.6778166558e-05 1.2316142856e-05 
0.024187243514 0.040226488924 9.6610585063e-05 5.699296186e-05 2.1459427344e-05 0.00015597750822 0.023149405909 5.7246258212e-05 9.8019850172e-05 
0.023965852783 0.039890803453 0.0066207656483 0.041461558005 8.8975906289e-06 0.003986099139 0.0039401567368 0.024316391163 1.1643849522e-05 
0.013559331771 0.013714676227 3.400301529e-05 0.015383441182 8.425196675e-05 8.3978938186e-05 0.0002556532261 0.0021807424943 0.0036010323249 
0.00047053724293 0.0020579895832 0.0013123809846 0.0039861712825 0.00071766279392 0.0011510567145 0.00038761509206 0.00069939249426 0.00026372210075 
0.00019480859817 0.015006431901 4.8117493149e-05 4.8246804054e-05 3.4369654652e-05 0.00014946083373 0.02525754743 0.9157100965 0.96797441947 
0.98948696831 0.96485962757 1.0024520984 0.94729243656 0.87546363933 0.93546105782 0.96828095381 0.90511709087 0.90344347286 
0.92126552232 0.99302905541 1.0030549474 1.0748455341 1.0047567046 0.89922718837 0.97725581119 1.0648102601 1.051272038 
1.0193056002 1.0121055553 0.96763289999 0.97477753425 1.0217499034 0.89311844245 0.91050448897 1.0066410732 0.96154927259 
0.99559360401 0.90687770938 0.90580390973 0.85037897688 0.90128729897 0.84891819807 0.85410535246 0.99853129526 1.0408049581 
1.06692057 0.99918078534 1.0997612467 1.1143139665 1.1088331844 1.096159831 1.0468410953 1.0634506649 1.0455383946 
1.0744499189 1.0622920636 0.89148804103 0.89141396586 0.88579301092 0.88868071103 0.895116334 0.96988273842 0.97383082975 
1.0407455863 1.0971841487 1.1097963621 1.0934711461 1.0402060245 1.0965802847 1.0460847539 1.0466570696 0.82933341103 
0.85770671975 0.8578394509 0.83065188329 0.77642347384 0.82704728048 0.8528413981 0.85369942155 0.82833786651 0.77466213112 
0.83188597906 0.86647617499 0.83039130167 0.78223609306 0.83095373653 0.85201581435 0.77563314226 0.95429172971 0.95392833212 
0.91434367597 1.0910708072 1.1079338179 1.0985856922 1.0452394544 1.0773229431 1.0774099476 1.0440665341 0.88657276752 
0.91963245777 0.76618219383 0.7748656193 0.77208097747 0.95015268815 0.77270621485 0.84677295491 0.92820277634 0.84349049068 
0.85118249425 0.85316187658 1.0800676049 0.90020672174 1.0759334429 1.0111667681 0.88018627295 0.89273635382 1.1000026722 
1.0665051502 0.87556375657 0.83738213337 0.69308255695 0.69263616583 0.69396072608 0.69377148948 0.6939657022 0.69318700079 
0.69247300227 0.69288245393 1.0711709696 0.99782823601 0.91069236079 0.99896701175 1.0544472178 1.0504627672 0.90327539071 
0.83938949684 1.0941438773 1.0357515482 0.76939814326 0.77240306516 0.77343144531 0.80856384782 0.77342797185 0.77118833164 
0.77649733282 0.77912215639 0.77256494186 0.97023999022 0.92920069315 0.94213680466 0.92546896549 1.025408928 1.0115062937 
0.96859963525 0.9970365981 0.9699443615 1.0115547009 0.99617845689 0.94120903038 0.88972205279 0.81577884816 0.81647237107 
0.81728930711 0.96832166368 0.93787418161 0.82355725398 0.8856543413 0.96796858741 0.96634864745 0.0028000229058 5.0424298507e-05 
0.0039144081576 0.0012304898208 0.019582636084 0.00075642287369 0.01092642817 6.0226624307e-05 0.00039459351123 0.0050581507518 0.0034571644099 
0.0081360251119 0.014270219734 0.0023704598775 0.035200923766 3.9486225396e-05 0.00011577418224 0.0086853928816 0.025059738486 0.00018684615966 
0.0017825795118 0.0012347866135 0.017955099633 0.011197312934 0.033437631117 0.023644173305 9.2435300219e-05 0.02025094914 0.0060522532674 
0.00042044802851 0.00014572789126 0.00017733973616 0.0012007622493 0.00026961670075 0.00040588970818 0.00012217585245 0.0002923562449 0.00030236840664 
0.0019666478332 0.0036591212091 0.00015696686752 0.00070747372405 0.0025671243387 0.00077389535377 0.0007505903579 0.00010599369416 7.7985320229e-05 
0.0038721721257 0.00045544288801 0.00059569713981 0.00010983723738 0.00010163717969 0.059555856866 0.043598196202 0.0017281546408 0.00022524558494 
0.033111946908 0.0011741924945 0.00019756177307 7.5547115433e-05 0.00012011045769 0.00022557347093 0.00048069021648 0.0013045698722 0.0041163203328 
0.10620079991 0.078477381434 0.061066290879 0.043915755146 0.046790632727 0.036749655224 0.026565064064 0.044672927611 0.078119719089 
0.00045062718861 0.0010864259163 0.001148092949 0.0021125737198 5.2252227934e-05 0.00011923370052 0.00060642186794 0.058952061323 0.03423787376 
6.2241936869e-05 0.00076156287903 0.00069822016095 0.0014046994195 0.0056259775896 6.7410526522e-05 0.00024962753721 0.0019629144583 0.00018774055122 
0.00041980044609 0.0032706058079 0.0060953863817 0.00025623531783 0.00057534783295 0.0062048398325 0.0070325181595 0.0038407358064 0.00025502350931 