# vtk DataFile Version 4.2
vtk output
ASCII
DATASET UNSTRUCTURED_GRID
POINTS 565 double
0 0 0 7 0 0 0 7 0 
7 7 0 1 1 0 2 1 0 
2 2 0 1 2 0 5 2 0 
5 1 0 6 1 0 6 2 0 
3 2 0 3 1 0 4 1 0 
4 2 0 5 3 0 6 3 0 
6 4 0 5 4 0 5 5 0 
4 5 0 4 4 0 3 4 0 
3 5 0 2 5 0 2 4 0 
1 4 0 1 3 0 2 3 0 
2 6 0 1 6 0 1 5 0 
6 5 0 6 6 0 5 6 0 
3 3 0 4 3 0 0.38888888889 0 0 
0.77777777778 0 0 1.1666666667 0 0 1.5555555556 0 0 
1.9444444444 0 0 2.3333333333 0 0 2.7222222222 0 0 
3.1111111111 0 0 3.5 0 0 3.8888888889 0 0 
4.2777777778 0 0 4.6666666667 0 0 5.0555555556 0 0 
5.4444444444 0 0 5.8333333333 0 0 6.2222222222 0 0 
6.6111111111 0 0 0 6.6111111111 0 0 6.2222222222 0 
0 5.8333333333 0 0 5.4444444444 0 0 5.0555555556 0 
0 4.6666666667 0 0 4.2777777778 0 0 3.8888888889 0 
0 3.5 0 0 3.1111111111 0 0 2.7222222222 0 
0 2.3333333333 0 0 1.9444444444 0 0 1.5555555556 0 
0 1.1666666667 0 0 0.77777777778 0 0 0.38888888889 0 
7 0.38888888889 0 7 0.77777777778 0 7 1.1666666667 0 
7 1.5555555556 0 7 1.9444444444 0 7 2.3333333333 0 
7 2.7222222222 0 7 3.1111111111 0 7 3.5 0 
7 3.8888888889 0 7 4.2777777778 0 7 4.6666666667 0 
7 5.0555555556 0 7 5.4444444444 0 7 5.8333333333 0 
7 6.2222222222 0 7 6.6111111111 0 6.6111111111 7 0 
6.2222222222 7 0 5.8333333333 7 0 5.4444444444 7 0 
5.0555555556 7 0 4.6666666667 7 0 4.2777777778 7 0 
3.8888888889 7 0 3.5 7 0 3.1111111111 7 0 
2.7222222222 7 0 2.3333333333 7 0 1.9444444444 7 0 
1.5555555556 7 0 1.1666666667 7 0 0.77777777778 7 0 
0.38888888889 7 0 1.3333333333 1 0 1.6666666667 1 0 
2 1.3333333333 0 2 1.6666666667 0 1.6666666667 2 0 
1.3333333333 2 0 1 1.6666666667 0 1 1.3333333333 0 
5 1.6666666667 0 5 1.3333333333 0 5.3333333333 1 0 
5.6666666667 1 0 6 1.3333333333 0 6 1.6666666667 0 
5.6666666667 2 0 5.3333333333 2 0 2.3333333333 2 0 
2.6666666667 2 0 3 1.6666666667 0 3 1.3333333333 0 
3.3333333333 1 0 3.6666666667 1 0 4 1.3333333333 0 
4 1.6666666667 0 4.3333333333 2 0 4.6666666667 2 0 
5 2.3333333333 0 5 2.6666666667 0 5.3333333333 3 0 
5.6666666667 3 0 6 3.3333333333 0 6 3.6666666667 0 
5.6666666667 4 0 5.3333333333 4 0 5 4.3333333333 0 
5 4.6666666667 0 4.6666666667 5 0 4.3333333333 5 0 
4 4.6666666667 0 4 4.3333333333 0 3.6666666667 4 0 
3.3333333333 4 0 3 4.3333333333 0 3 4.6666666667 0 
2.6666666667 5 0 2.3333333333 5 0 2 4.6666666667 0 
2 4.3333333333 0 1.6666666667 4 0 1.3333333333 4 0 
1 3.6666666667 0 1 3.3333333333 0 1.3333333333 3 0 
1.6666666667 3 0 2 2.6666666667 0 2 2.3333333333 0 
2 5.3333333333 0 2 5.6666666667 0 1.6666666667 6 0 
1.3333333333 6 0 1 5.6666666667 0 1 5.3333333333 0 
1.3333333333 5 0 1.6666666667 5 0 5.3333333333 5 0 
5.6666666667 5 0 6 5.3333333333 0 6 5.6666666667 0 
5.6666666667 6 0 5.3333333333 6 0 5 5.6666666667 0 
5 5.3333333333 0 3 2.3333333333 0 3 2.6666666667 0 
3.3333333333 3 0 3.6666666667 3 0 4 2.6666666667 0 
4 2.3333333333 0 3.6666666667 2 0 3.3333333333 2 0 
2 3.3333333333 0 2 3.6666666667 0 2.3333333333 4 0 
2.6666666667 4 0 3 3.6666666667 0 3 3.3333333333 0 
2.6666666667 3 0 2.3333333333 3 0 4 3.3333333333 0 
4 3.6666666667 0 4.3333333333 4 0 4.6666666667 4 0 
5 3.6666666667 0 5 3.3333333333 0 4.6666666667 3 0 
4.3333333333 3 0 1.2951917063 1.5 0 1.7050506247 1.5 0 
1.5000403885 1.2474399183 0 1.5000403885 1.7525600817 0 1.7576802451 1.7576802451 0 
1.2423197549 1.2423197549 0 1.7576802451 1.2423197549 0 1.2423197549 1.7576802451 0 
1.5 3.7048082937 0 1.5 3.2949493753 0 1.2474399183 3.4999596115 0 
1.7525600817 3.4999596115 0 1.2423197549 3.7576802451 0 1.7576802451 3.2423197549 0 
1.7576802451 3.7576802451 0 1.2423197549 3.2423197549 0 1.7048082937 5.5 0 
1.2949493753 5.5 0 1.4999596115 5.2474399183 0 1.4999596115 5.7525600817 0 
1.2423197549 5.2423197549 0 1.7576802451 5.7576802451 0 1.7576802451 5.2423197549 0 
1.2423197549 5.7576802451 0 2.5 2.297798335 0 2.5 2.7026766338 0 
2.2474399183 2.5000791615 0 2.7525600817 2.5000791615 0 2.2423197549 2.7576802451 0 
2.7576802451 2.7576802451 0 2.2423197549 2.2423197549 0 2.7576802451 2.2423197549 0 
2.5 4.6985523849 0 2.5 4.2971333787 0 2.2474399183 4.4992809606 0 
2.7525600817 4.4992809606 0 2.7576802451 4.2423197549 0 2.2423197549 4.7576802451 0 
2.7576802451 4.7576802451 0 2.2423197549 4.2423197549 0 3.5 1.7048082937 0 
3.5 1.2949493753 0 3.2474399183 1.4999596115 0 3.7525600817 1.4999596115 0 
3.2423197549 1.2423197549 0 3.2423197549 1.7576802451 0 3.7576802451 1.2423197549 0 
3.7576802451 1.7576802451 0 3.5 3.2951917063 0 3.5 3.7050506247 0 
3.2474399183 3.5000403885 0 3.7525600817 3.5000403885 0 3.2423197549 3.2423197549 0 
3.7576802451 3.7576802451 0 3.2423197549 3.7576802451 0 3.7576802451 3.2423197549 0 
4.5 2.2951917063 0 4.5 2.7050506247 0 4.2474399183 2.5000403885 0 
4.7525600817 2.5000403885 0 4.7576802451 2.2423197549 0 4.2423197549 2.2423197549 0 
4.7576802451 2.7576802451 0 4.2423197549 2.7576802451 0 4.6985523849 4.5 0 
4.2971333787 4.5 0 4.4992809606 4.7525600817 0 4.4992809606 4.2474399183 0 
4.7576802451 4.7576802451 0 4.2423197549 4.7576802451 0 4.7576802451 4.2423197549 0 
4.2423197549 4.2423197549 0 5.2951917063 1.5 0 5.7050506247 1.5 0 
5.5000403885 1.2474399183 0 5.5000403885 1.7525600817 0 5.2423197549 1.7576802451 0 
5.7576802451 1.2423197549 0 5.2423197549 1.2423197549 0 5.7576802451 1.7576802451 0 
5.5 3.2951917063 0 5.5 3.7050506247 0 5.7525600817 3.5000403885 0 
5.2474399183 3.5000403885 0 5.7576802451 3.2423197549 0 5.2423197549 3.7576802451 0 
5.7576802451 3.7576802451 0 5.2423197549 3.2423197549 0 5.6985523849 5.5 0 
5.2971333787 5.5 0 5.4992809606 5.2474399183 0 5.4992809606 5.7525600817 0 
5.2423197549 5.2423197549 0 5.7576802451 5.2423197549 0 5.7576802451 5.7576802451 0 
5.2423197549 5.7576802451 0 3.7485855544 6.6942501976 0 2.2872656985 5.8378913721 0 
4.7119339728 5.8373697827 0 2.8759754619 6.5951459244 0 2.8162186717 5.3084308736 0 
3.186129153 5.2921568433 0 2.9979032054 5.5850721589 0 3.3402908331 5.6008010525 0 
4.1834772538 5.3076746294 0 4.7107049802 6.1677403394 0 4.4211946596 6.0016838939 0 
0.27665997492 2.5838218441 0 6.7053237048 2.42793991 0 0.29467629521 4.57206009 0 
4.4161781559 0.27665997492 0 6.663212343 4.4722222222 0 2.42793991 0.29467629521 0 
2.2918240758 6.1960938346 0 3.1734987121 5.8836777691 0 3.5136330362 5.8882723168 0 
6.6167962299 6.3741865029 0 6.3741865029 0.38320377014 0 0.38357251857 6.3760800284 0 
0.38320377014 0.6258134971 0 5.5 4.7113248654 0 2.5 1.6872666359 0 
5.8514999722 2.3378951476 0 3.6772759043 4.8414452564 0 4.3378951476 1.1485000278 0 
1.1485000278 4.6621048524 0 1.1485000278 2.6621048524 0 2.3378951476 1.1485000278 0 
5.1103344757 6.2741611014 0 0.71132486541 5.1666666667 0 6.2886751346 1.8333333333 0 
1.8333333333 0.71132486541 0 1.8899895413 6.2784546756 0 5.1666666667 0.71132486541 0 
6.2886751346 5.1666666667 0 0.71132486541 1.8333333333 0 3.8333333333 0.71132486541 0 
6.2886751346 3.8333333333 0 0.71132486541 3.1666666667 0 6.2939163714 3.1693263045 0 
3.1693263045 0.70608362863 0 0.70608362863 3.8306736955 0 6.3007298331 5.8302758913 0 
5.8302758913 0.69927016685 0 0.68791714935 5.8284678454 0 0.69927016685 1.1697241087 0 
1.1703128001 0.69343635082 0 1.1703128001 6.3065636492 0 5.8296871999 6.3065636492 0 
6.3065636492 1.1703128001 0 4.4127643558 6.3484393703 0 4.0729408297 6.1740044985 0 
5.3127333641 2.5 0 4.5 1.6872666359 0 1.6872666359 4.5 0 
1.6872666359 2.5 0 3.5 4.3127333641 0 2.5448645473 5.9628839255 0 
5.8438027206 4.298242306 0 3.341591884 6.1882059124 0 3.8079455038 5.2924572466 0 
4.0000028322 5.5805606494 0 0.80895730489 4.7699760833 0 2.2300239167 0.80895730489 0 
6.1910426951 2.2300239167 0 0.81140688702 2.7706116978 0 4.2293883022 0.81140688702 0 
6.1530370913 4.2585353481 0 2.1540193915 6.522253769 0 4.8162223334 6.4882902395 0 
4.8222111689 0.70955465736 0 6.2921473568 4.827319268 0 0.70955465736 2.1777888311 0 
6.3389745166 0.79855227087 0 0.79855227087 0.66102548337 0 6.2014477291 6.3389745166 0 
0.79902978757 6.339184919 0 2.827319268 0.70785264318 0 6.2921473568 2.827319268 0 
0.70785264318 4.172680732 0 2.984286409 6.1874521762 0 2.6004296679 5.6380503952 0 
4.3907348225 5.6293300039 0 2.4954354469 6.464014563 0 0.49511543862 4.857146981 0 
2.142853019 0.49511543862 0 6.5048845614 2.142853019 0 5.8109523545 2.6966506386 0 
3.3095189699 4.8399570492 0 1.1890476455 2.3033493614 0 2.6966506386 1.1890476455 0 
4.6966506386 1.1890476455 0 1.1890476455 4.3033493614 0 3.5 5.1333820886 0 
6.0092788027 4.6114103291 0 4.1180693191 6.5205687606 0 1.3559386168 0.35702514778 0 
5.6476385745 0.34601141574 0 0.34413339402 5.6496515319 0 0.34601141574 1.3523614255 0 
6.6539885843 5.6476385745 0 5.6440613832 6.6429748522 0 1.3559386168 6.6429748522 0 
6.6429748522 1.3559386168 0 3.691651827 6.1657024845 0 0.38131474442 4.0107495165 0 
0.35859789556 3.6542298248 0 2.9892504835 0.38131474442 0 3.3457701752 0.35859789556 0 
6.6186852556 2.9892504835 0 6.6414021044 3.3457701752 0 2.485711609 5.2962123554 0 
4.5142724884 5.301683263 0 4.1386885406 0.49621789734 0 0.49621789734 2.8613114594 0 
6.4653693356 4.1675183045 0 1.7815734083 0.35375209722 0 0.35191041811 5.2192251844 0 
5.2045327576 6.6420335985 0 5.2715908019 0.34496760504 0 0.34496760504 1.7284091981 0 
1.7912623484 6.6472833477 0 6.6462479028 1.7815734083 0 6.655032395 5.2715908019 0 
6.0018111307 0.33962155199 0 6.660378448 6.0018111307 0 0.33962155199 0.99818886931 0 
0.33789389548 6.0020556849 0 4.8431738401 0.36643899333 0 0.36643899333 2.1568261599 0 
6.6695014189 4.8502181121 0 3.3194031049 6.6880752893 0 0.98302760942 6.6572105079 0 
6.0170519767 6.6571754409 0 6.6571754409 0.9829480233 0 0.9829480233 0.34282455914 0 
0.60283050123 6.6812981717 0 6.6809416725 0.60267619269 0 0.60267619269 0.31905832746 0 
6.3973238073 6.6809416725 0 5.508864916 4.3176715804 0 3.7798225257 0.35426223421 0 
0.35426223421 3.2201774743 0 6.6429380014 3.7819238204 0 0.71132486541 5.5 0 
5.4647693027 6.3109555335 0 1.5 0.71132486541 0 3.5 0.71132486541 0 
0.71132486541 3.5 0 6.2886751346 1.5 0 6.2886751346 3.5 0 
[...]
CELL_DATA 1056
FIELD FieldData 1
radiation%20flux%20density 1 1056 double
0.38904523814 -0.49728820662 -0.81917452751 0.10877022662 1.2083257916 -0.075173904501 -0.026788868919 -0.28362620706 3.4311111097 
-0.29952032556 0.00017502977479 0.082162953095 -2.6270163484 0.5234653321 0.0057496428382 -0.24702935277 0.8049690972 2.6310730426 
-0.41804158682 0.75867472335 -0.22949135501 0.53474264455 -3.5887777324 0.11868744547 -1.3432366538 0.18156377352 -0.33764318032 
-0.64573486571 2.0127982757 2.0132214512 -0.73595704861 -3.1816299175 -1.7436149454 2.644739802 1.6466414815 -2.1737299163 
1.6601832229 -1.7576480632 2.7165974765 -2.2113619794 -3.420304092 -2.8270277583 -2.8151747814 -3.3813679843 -0.4904148507 
-0.50537147341 1.5593351301 1.5701402649 5.2395476777 0.10851871505 5.2569762271 0.11522798402 0.37577515122 -0.46047973334 
-0.82736878958 0.10453733893 1.199979548 -0.074149921942 -2.684951213 0.087540161716 0.51627308036 0.00014193594012 -0.2907075215 
-0.2944942262 3.38781206 -0.025712751724 0.82452060079 0.0051378652957 2.6701702368 -0.2343372383 0.50820001115 -0.22157156759 
-0.4225932364 0.69162261619 -1.3221190561 0.11461058379 0.18116588835 -3.5625424623 15.150296228 -16.221650161 53.4156224 
4.2736630263 -82.947423325 -64.715641659 -19.404798214 11.817697523 -48.779920578 7.5035355464 -48.574678397 -26.394528746 
-44.366538358 11.876604012 -49.504258417 -14.927888152 -30.192646146 42.388919548 12.441112616 19.761010888 -18.909735244 
-21.145318799 50.104208567 92.733453482 33.769376525 26.239561707 14.862401747 -15.832123602 52.684278582 3.3834584521 
-81.268158821 -61.599762664 -47.124556044 -27.092769812 12.689596032 -42.90864572 -17.536192995 12.142495609 6.8097233233 
-47.780460996 -16.713013121 42.664380081 -49.343529638 -29.929198447 11.201638967 20.260208272 -17.322510207 -21.54072441 
26.26076281 32.098104565 91.922790156 46.906870814 0.44700112448 0.43608013523 2.0602084075 -0.5256390309 -0.66693108781 
-0.69285317062 2.1408026746 -0.83764939635 0.10165542806 -1.0761993185 0.090792443529 -0.82614386971 2.1351562027 -1.0701341114 
-1.4327262617 0.44461961137 0.44767713506 -1.4202219236 0.080791651261 0.09353534923 -1.4698120313 -1.4833167678 0.34229085826 
0.37210515227 1.0063334684 1.0558103015 1.1888263174 1.1830469723 1.2655977323 1.1884400448 1.1274698662 1.1838945804 
2.4698331961 2.5834914746 2.6604565405 1.4547231236 1.5179065845 1.4059408493 2.6145031963 1.4830268477 0.78409440247 
0.70644386889 0.69883117869 1.1212515959 1.4451216438 1.4299088805 1.4480933045 1.4526818479 1.1333980271 0.69552689943 
1.1106930047 1.093815853 14.235965373 -15.846527515 3.3927208478 52.620114485 -64.807312025 -81.695791849 -19.424619316 
11.295041708 7.4391322846 -48.822592716 -25.741843404 -43.411519915 -48.073001304 11.164211735 -14.048704067 41.952631847 
-47.732886567 -28.47530406 11.879514174 19.514644745 -18.688586964 -20.02915372 25.786010029 34.146496953 49.714165664 
91.04414905 -16.531596045 15.933190683 53.748130493 4.977218539 -65.532857943 -83.446629563 -20.204235561 -44.971093337 
11.910401979 -50.739919469 8.1669840141 12.594156897 -49.241475061 -25.08014112 -50.857513057 -30.674671844 -16.272458622 
42.082350979 -18.797804768 12.967860993 -21.220745126 18.312311986 50.160408109 35.960529501 26.248655547 93.589783805 
0.37567140301 -0.48070481899 -0.80274176539 0.10480201057 -0.073067624556 1.1754850019 0.50592386696 0.078233905582 -0.28737539671 
-2.5809350483 0.00030730698531 -0.27517404583 3.3840080484 -0.025896642881 -0.23754203292 0.78655948497 2.5767080094 0.0052311281815 
-0.40508311683 0.7392842103 -0.22125986343 0.51236971926 0.17656473228 -1.3004345728 0.11474281005 -3.5214254571 -1.4067384424 
0.50197400444 -0.034195677971 -1.5862411268 4.9538719643 3.4765374749 2.9231283159 0.39812949829 1.6118670396 1.0215001 
1.8302905355 0.84037848232 2.5422813559 -0.14757711395 1.7835976736 -2.3415994541 -0.23356100231 -2.2818065867 2.0194757539 
2.9717436944 -0.69661428693 -1.1088186361 -4.1736808344 0.62844798515 -1.8633939807 -4.5208202793 -0.35433575092 -0.050695159868 
0.048340657994 1.2490427767 -1.0034178277 0.066187256795 -2.7614952028 0.15218975824 -0.0031409209532 0.58971925821 3.6284139893 
-0.28301279567 0.0020238438729 -0.30621025202 -0.13186507723 -0.012700896995 -1.487285763 -3.5364427755 0.0036207129933 0.090451735601 
0.63304632873 0.3778532062 -0.19859943898 0.84259315563 3.145111842 0.010096507641 1.2251664642e-06 1.3059125672e-06 1.360572869e-06 
8.3117690247e-07 0.00010800498228 -0.00018676582127 0.00018052615495 -6.0303921493e-06 -9.1527360212e-06 -7.1255717583e-06 -1.4463595181e-06 -0.0019904569768 
0.16791987211 0.0089775082539 -0.0049899603952 0.0027045214538 0.0024175591857 0.0015914431026 -0.00045596979552 -0.00013792927905 -0.55876793415 
0.000935499539 0.0028392835879 -2.150173015e-05 0.0029643656682 0.0024768595451 -0.0097674275654 0.0018932983034 -0.0099936949647 -0.083912377032 
-0.11899216983 0.1273515587 -0.012001031798 -0.0099243150423 0.021774709185 0.0036340269851 -0.0075626064213 0.029255555556 0.038397803841 
-0.037658208842 -0.60837492824 0.005330190301 0.0033334003881 2.1222570865 0.010805108939 0.0011648406318 -0.0011067315795 0.0011433446546 
-0.00035433595593 -0.00035019722278 0.00069674537499 0.0037406938661 7.9880957571e-05 0.00071055513371 0.0011395332039 -0.00062697985086 -0.0006176368651 
-0.091496311779 0.033459543279 0.042791923653 0.075098673072 0.066356391421 -0.035432958104 0.077689446273 -0.037228045781 6.8251621541e-05 
0.0056064942188 -0.003767439903 0.0023386011061 0.002135475661 5.6853059573e-05 -2.6419943162e-05 0.0001072233629 -0.00018501287609 -0.00017010076861 
-2.2386319183e-05 -0.00018590581537 -0.00017054668757 0.0092160306475 0.0018638797701 0.0011004986711 -0.87823572627 -0.24075947709 -0.2239549814 
-0.21825461907 0.10458660697 0.099297666468 7.7701760925e-07 1.3500424643e-06 1.3735185831e-06 1.468665625e-07 6.5951685744e-05 -2.6514452135e-05 
5.3557597781e-05 0.00010934931573 -0.00068894703422 0.0014052575131 0.0013694324121 0.00019276070083 0.0014773853949 0.00013717192914 0.0022790665458 
-5.3648019788e-05 -0.00023141212536 -0.00042089570386 8.1436356592e-05 -0.00045195281835 0.00045819614507 -0.40558478034 0.055654635907 0.025836747112 
0.014382640936 0.0025100700541 0.0032156032719 7.9188761357e-05 0.88467624367 0.001995759584 0.0010678687678 0.00026484730295 -0.0003335836559 
0.00029778425939 -0.00044448646265 -0.00044059415177 -0.0001980646713 0.00029711941936 -0.00046500022789 0.0026725808094 1.246074489e-06 8.7051843096e-08 
8.2516503966e-07 1.1451790713e-06 -0.0025933810161 -0.0090853862005 -0.023637913472 -0.0015001779616 -9.4513107934e-05 0.0011308171675 -0.00038161520049 
-0.00034982959882 0.00092501810343 -0.026629041725 0.00078455134695 -2.1649943479e-05 -3.7185710118e-05 0.00014413974887 0.0072525927684 6.092866156e-06 
1.6666080525e-07 4.121387044e-06 -7.867588559e-06 0.0011315898967 0.24006181815 0.010016589802 0.0090966092233 6.9415803989e-05 -2.5295264669e-05 
-1.3529226236e-05 4.1083328714e-05 -12.326106032 0.0018519745725 25.026622201 1.864374621 0.008512428715 -7.5684641724 8.2047785639e-05 
3.7328321935e-05 2.0882815683e-05 -0.016125476376 -0.014189551447 0.010295170134 -0.030170460225 0.006087786373 -0.033285975666 -2.5854088025e-06 
8.6487854161e-07 -8.1840486136e-06 -7.0648692835e-06 0.00021431133304 0.00019980378644 9.3367459789e-05 0.00036582518115 -8.0606371101e-06 1.2252263862e-06 
-5.0776586364e-08 -1.4113664582e-08 0.00048756563292 2.9127288284e-07 0.0022363177002 -4.071500885e-08 -7.5875094024e-08 -9.547709408e-09 1.8311424047e-08 
-0.0022188973277 -2.8849601214e-05 7.0806866087e-05 0.00018637351987 -9.7900095927e-06 1.9184727144e-06 2.4048946758e-06 0.0026780904557 0.0019874204237 
-3.0994899907e-06 4.0075720001e-05 1.9214109139e-05 1.8033723702e-05 3.5786619735e-05 3.6716199714e-05 3.6675757945e-05 7.4320256207e-05 4.1930688973e-06 
-6.5979376342e-06 -7.811513056e-06 1.2402048188e-08 1.7174981938e-05 6.9605956541e-05 -0.00068456620067 0.00011217179633 4.9245192914e-07 -6.9709028849e-06 
2.1078827423e-06 5.7981567828e-05 3.3053081872e-05 0.00068409347859 3.6150590793e-05 0.00042421399366 0.00045420477686 2.1522170482e-06 9.8539054489e-05 
-2.5425934884e-05 9.7752575945e-05 5.3774044732e-05 0.00011677698515 2.7830931395e-06 5.0954471965e-06 7.6454521898e-06 3.5863936373e-07 -8.3615763592e-07 
-1.6912293914e-06 -3.5538919435e-07 9.810863071e-07 -2.8192991899e-05 3.0782429146e-08 2.5944071427e-08 -7.0986525797e-08 1.8564088073e-08 2.8904366678e-05 
0.002086923471 0.00011745116753 0.00012705464086 0.00015945565706 0.0043183228209 3.1997237523e-05 0.00090368476327 -0.0089879297999 -0.010978442973 
0.01516382113 5.5894481449e-05 1.4054681718e-05 1.4250516774e-05 1.4512537382e-05 1.2263030356e-05 4.0422640732e-06 1.4035689307e-05 5.5830510873e-05 
1.3100078807e-06 1.1366518454e-06 1.1967413191e-06 5.7017139753e-08 0.001043899712 2.022229818e-05 8.8017227467e-06 2.5398325815e-05 0.0011642322534 
-0.0015068427536 -0.083811156223 -1.2169282148 0.41544464296 -1.0552191816 0.54016246777 -1.1384063931 0.51861712887 0.72626342306 
-1.2156270647 0.43536572959 -1.6052535899 -1.2783400097 -1.0825210822 0.075420092586 0.0095043697744 0.029999291843 -0.020052642524 
23.799968048 -0.028434035753 0.032617999748 -0.15772961477 -11.682168832 -11.652012497 22.766010047 0.10422845041 -0.12719197917 
23.800494874 0.40395540419 0.0069819522735 -0.0074337284395 -0.011076073578 -0.019226208636 -0.061701739518 -0.56287303121 6.7576345544 
0.0052422025843 0.0606455657 16.372310135 0.015180632042 -0.034140685895 -0.92145965323 -0.0012955699529 0.0011126833818 -0.000934487229 
0.11123663601 0.55309400882 -3.1523350992 0.032510830093 0.011392940715 0.013901834607 0.027963990624 -0.00077107366465 -0.00098191777056 
0.0013634556561 -0.077524579555 1.0638861176 0.013699833027 -2.1457526242e-05 -0.0030339134228 0.0122043559 0.012183269321 0.078647163765 
0.52564945951 0.063149275009 0.010962772689 0.010127756828 0.0051218800962 -2.6121289243e-06 2.8460292761e-05 5.053768183e-06 0.00015827622398 
-0.0095915449 -1.2746272875 0.00015507005859 -0.36666670284 -0.26755537582 5.9818233868 0.22352188998 0.093126056372 -0.5928446858 
-0.36575404416 34.102614466 -0.40363720665 0.083062552325 0.25042640713 -0.55797541785 0.019636522609 -0.010690508844 -0.016534337874 
-0.010417417373 0.012262061088 -0.016647462338 -0.37204592313 0.014112638922 4.4126826249e-05 0.0582419852 0.0043938825651 -0.015814493882 
0.35018489064 0.52402796213 -0.51320070307 -0.015308166302 -1.7149896379 0.01277897412 0.30206150287 0.0045348474681 0.00012109592915 
-0.014655231632 0.35974445271 0.53170978321 0.060776500241 -0.030094884294 -0.00024916010014 0.001200155942 0.070312695008 0.38053679806 
-0.014022191472 0.0044728545382 8.7113796607e-05 0.059768537752 0.020047451091 -0.0084676892308 -0.0045137031374 0.015789809093 0.0055549292247 
0.0043995765773 0.10952223518 -0.072651583258 -0.099324484896 -0.0072532822367 0.0022300720405 0.028697886522 0.00046322316737 0.00045152316959 
-0.00021772230156 0.00010068955499 0.00010116395559 3.6568645837e-05 0.16938103123 0.12757687395 0.045049930963 -0.0084335598378 -0.010169900949 
0.018321643965 0.0011008196479 0.027044724173 -0.00014888603842 2.4158055397e-05 -0.00055660366978 -0.00052727620913 -0.0021108943546 0.38689650669 
0.026598325999 -0.16483471345 -0.42780961343 0.088518675191 -0.023517510454 0.020051757492 0.025174082959 0.001677696945 0.0030965349002 
-0.012167440836 -0.0084804618139 -0.0087521966184 0.35431371582 0.0049748666782 -0.0020735496576 -0.0018240719702 0.0031313835455 0.0028590351148 
0.0013927102737 0.0001785956048 0.00033770606613 -0.13183699006 -0.17733551712 -0.0092378964333 -0.12898045595 0.3835204447 -0.17477024069 
0.0019043867062 -0.0017875461959 -0.22344026952 0.10502030199 0.19657767177 0.078252718853 -0.018416461273 -0.76820646345 -6.1667418203 
0.10895664781 -0.03194865216 0.080292682475 -0.0005897181448 0.15004429533 -0.0062266468534 0.0015618415655 7.957919277e-05 6.3802647096e-08 
7.9147982254e-05 3.4266125605e-05 0.010895921961 3.614925339e-08 2.4833196191e-08 3.0058877569e-08 3.3271922234e-08 -14.967338375 1.1236470864 
0.018235243557 -0.19063835414 0.0018329487686 0.0027169224064 0.033733367449 0.043350744561 -0.087765677843 -3.3507957278e-10 -3.1976108252e-10 
-3.7222121206e-10 -8.7994120411e-11 -1.2379777647e-09 -9.1865926025e-10 -5.9454139485e-10 9.7721704892e-11 0.020703529974 0.13334407727 -0.098700538862 
-7.1304506231 0.67804369393 21.843665323 -7.0022452355 -7.0836884053 -6.9406471971 -7.4031245247 22.261018322 2.733345168 
20.474063016 -0.8263429051 -7.2207859545 2.6812692538 0.70056490961 0.65738135397 -7.2448223495 20.756359495 -0.70350692093 
22.182369208 -5.2971647685 20.164517809 -7.1403024425 12.836401153 -0.55400820597 0.58079848782 -7.3700043118 -0.54628751536 
2.8766321615 -7.5651479156 21.604397768 -7.3713231581 2.8782555154 0.03563788795 0.1098333911 -0.013030531055 0.0039004348676 
0.0036398153823 0.030567110513 0.0056788824189 0.12095881829 -1.2578575142e-07 -5.8584772283e-08 -1.7840856052e-07 -1.2385241952e-07 -0.043895038594 
5.2139850783 0.0089387360661 0.0015078982012 0.00056950714728 -10.71023962 0.00077143017922 -0.0017403498381 -0.029993213831 0.00044412836506 
-0.26677471561 0.0043291731187 1.6619811288 2.698998741e-08 2.1751977686e-08 2.4079082581e-08 2.2380689219e-08 -0.068124950236 0.031637475826 
-0.00020078323059 0.00040463913112 0.00051243270776 1.5523973699 0.050100251326 1.6908683128 -0.26161646567 0.003007082441 1.5413118322 
-12.086370339 -0.29515816805 2.0080915878 1.9281815551 1.8999617247 -1.5200774654 -0.0026577861301 0.00068899416088 0.00073947714122 
0.001213237783 0.20184756074 -0.26365760903 -11.061165423 0.49923473575 -9.7306049982 4.8159804532 -10.102323195 2.2553632894 
2.239791449 -10.046273427 0.14628739675 -10.7026036 -11.058743351 4.8668720101 -0.0052285241014 0.0039578877497 0.0043542417113 
0.0053249111151 0.00026509447834 0.00031253492312 -0.00018475714042 0.011534127942 -2.3872128582 1.4708002794 0.00088389049785 0.22060142556 
0.0092400804145 5.2123727649e-05 3.9425509135e-05 3.4692004895e-05 0.00019908200012 -0.076442769415 0.00020122094918 0.00089081822491 0.0079163613849 
0.92052501194 0.38188712563 0.36330920527 -0.11097838744 0.41541095943 0.47347174283 -0.22804805491 0.41191036786 -0.12599195192 
0.34899614326 -0.20134314208 3.6239969416 4.2971632462 -2.2742674859 4.162324461 4.362055317 -1.3118739638 -2.2738116044 
1.1245012293 4.3557817193 -1.2913831192 5.5327189765 4.4687107992 4.5656649577 -0.001001414005 -0.001006065455 0.0012130188883 
0.00038298551828 -2.3808483989 4.6081565475 -1.6854333009 -2.6965727876 6.2687222541 3.3248795976 0.0059956384308 -0.002456287633 
0.0048798167725 0.035080646987 0.0068595066829 -0.0054733109684 -0.0046772965603 0.011555622156 -0.00066464726482 0.15039411941 0.0074341679445 
0.0053251132269 0.0013070866387 -5.187360053e-05 -6.9450987587e-05 -0.05076713263 -0.00038773098969 -1.0633838952 -1.0260755341 0.23690340534 
-0.60450452865 39.310121455 38.733075763 -3.8191718587 9.9684145938 10.035480016 -5.8039522012 13.593728856 -3.8425728678 
13.871063841 -5.6934362044 0.97896764673 0.70878589452 0.69362644957 0.97318577118 5.9128452315 4.7391146865 5.8263925881 
4.8098126897 -14.449608214 -11.639861411 -11.804486298 -14.235726496 0.012765561086 -0.28086004815 5.9020948104 5.7415966773 
0.42234007451 0.61970779768 -0.51035179246 0.58964450886 -1.1450923874 1.0992436433 1.5823785151 0.56654286993 -0.56918934441 
-0.96928646681 -1.5946213276 -1.543630137 -1.8481223616 -1.7170757481 1.6374549512 1.5837345784 0.81824819009 0.79813600657 
0.17897436685 0.23078329307 0.12308799543 0.12809646338 -1.6473251687 0.63701243247 -1.4958387817 0.34239358246 7.3552465403 
39.680104853 10.064754993 1.1026753727 -0.63792711994 -6.0261473616 -4.2236974206 -1.0336930814 -0.064583842517 14.562150086 
0.21659950406 1.1890551144 0.88198126292 0.69933314933 6.2135959688 1.2749577101 0.46014238772 4.8986356456 -2.0980275051 
-2.2584075041 -14.772290182 -11.976699617 
POINT_DATA 565
FIELD FieldData 1
radiation%20flux%20density 1 565 double
-1.0783185125e-09 -4.8338130345e-10 -3.2742032765e-10 4.8637922407e-12 -0.0032091816218 -0.035046191407 -2.8125761601 0.036022182708 -2.7950000913 
-0.02831685683 -0.0030963973012 0.04333352919 -0.55101803146 -0.093914442972 -0.10962495837 -0.55298235191 -2.4833421738 0.3613948631 
0.34484840098 -0.47087234493 -2.745517494 -3.3256590811 -7.9207449607 -7.7816329454 -0.92911602779 -2.6058729888 -2.5639901813 
0.030868324552 0.041950240889 -2.6716745518 -0.0335576366 -0.0030794562895 0.043947387291 -0.017436934137 -3.4750491083e-05 0.054651369662 
-7.8635192735 -7.7223814304 -1.4613716518e-08 4.0539017993e-07 1.7497799712e-06 1.1481904073e-05 3.1611512395e-05 6.8489786213e-05 0.00021714999341 
0.00038783427999 0.00048336424058 -0.00034778671024 0.00024621071927 4.0617001386e-05 2.3271216824e-05 1.0218464474e-05 1.5362418002e-06 4.0375233339e-07 
-1.6400125991e-08 1.7532993088e-08 4.4945133343e-07 -2.5289289551e-06 1.6335047939e-05 1.5378185896e-05 7.7711378611e-05 0.00022268651038 0.00045380801081 
0.00056530880081 -0.00037264490905 0.0002333748846 4.6688129302e-05 3.163059082e-05 1.3022411465e-05 -2.7686670428e-06 4.0039724754e-07 1.3908170465e-08 
1.4257466342e-08 4.9296061674e-07 -2.2831530568e-06 1.6944302044e-05 1.9663938233e-05 6.4787836486e-05 -5.3018102724e-05 -0.00064372044135 -0.00097513636262 
0.00065109328376 -0.0001013134625 8.0462849278e-05 2.0105610268e-05 4.5730974852e-06 -8.9273088309e-07 3.722192294e-07 1.7544042846e-08 6.8077246803e-09 
7.218865982e-07 2.2040501554e-06 4.5103394951e-05 0.00013739516307 0.00034613708144 0.00080429725653 0.0011655198341 0.0013985174631 0.0013849468292 
0.00083897903966 0.00037205127967 0.00013772957833 3.4517227688e-05 4.8384453184e-06 6.6079236314e-07 -1.6285055141e-09 0.0055497681295 0.031364804167 
-0.034729475153 0.28994557022 -0.81381594659 0.010906645883 -0.066924835702 0.017061143995 0.27871138964 -0.03249209116 0.030051431498 
0.0051148977109 0.016144748961 -0.064500226336 0.012222350567 -0.81777539382 6.0775588388 -4.270624449 0.079884355617 0.0035233633172 
-0.10413834494 -0.10454162875 0.0020199865096 0.074043667687 -4.0839367753 5.993157152 -4.0460636353 -7.4269515212 -0.81209170199 
-0.12829023499 -0.04636167669 0.091231378872 -0.14895083306 0.15610898863 -4.9170607364 5.6668680557 -4.0704604704 -7.4972225568 
-1.5227179056 4.5198696689 0.57325539764 0.0080655024577 -0.26954657131 -2.2506942479 -4.2631058526 5.6962362301 -4.0669357853 
-7.2291745541 -0.75890089235 0.048659518599 -0.27588197955 -0.27157215764 0.051594174941 -0.79193723037 -7.4197834185 -4.0873278501 
0.3096416182 -0.033814489019 0.032152219772 0.0050222034352 0.016077741831 -0.064968687052 0.014769928011 -0.80023971694 0.34476557608 
-0.067484141595 0.0055213173359 0.0048169023509 0.010888364588 -0.065194614814 -0.00010677271089 -0.83166040163 -1.943868483 -0.043718889816 
-0.046555132341 -0.03456221228 -0.10559433019 -1.9015034316 -0.11159434234 -0.11760113415 0.19940410535 0.19975582914 -1.767687116 
4.0985699474 0.54401673929 0.55793649857 4.2319697334 -1.7454180668 0.54767288105 -0.074090434923 -0.18780007833 -1.8771382953 
-0.062509372954 0.54188838661 -1.4324843852 4.3005039499 0.0092141196791 0.40703682576 -0.0055683982003 -0.48792657222 0.12101295897 
-0.02633362117 0.073405605987 -0.16631567109 -0.58774381734 -0.59095931269 0.37993697752 0.94556213291 -0.24916672372 0.37029855628 
0.36476362114 -0.24751702623 0.40737812081 0.011037403908 -0.49088984606 -0.0077938504288 -0.16529548582 0.075985178592 0.10042224755 
-0.025478786859 -2.6509286758 2.0020392264 5.8599192177 1.8499559199 -2.6838479212 7.7605209813 -3.244669835 -4.5449693523 
-2.9232653244 1.981200299 5.8675520878 1.7906975169 7.7658239942 -3.4695404405 -4.5215195064 -2.6417701995 -0.40896961676 