# vtk DataFile Version 4.2
vtk output
ASCII
DATASET UNSTRUCTURED_GRID
POINTS 4013 double
0 0 0 7 0 0 0 7 0 
7 7 0 1 1 0 2 1 0 
2 2 0 1 2 0 5 2 0 
5 1 0 6 1 0 6 2 0 
3 2 0 3 1 0 4 1 0 
4 2 0 5 3 0 6 3 0 
6 4 0 5 4 0 5 5 0 
4 5 0 4 4 0 3 4 0 
3 5 0 2 5 0 2 4 0 
1 4 0 1 3 0 2 3 0 
2 6 0 1 6 0 1 5 0 
6 5 0 6 6 0 5 6 0 
3 3 0 4 3 0 0.125 0 0 
0.25 0 0 0.375 0 0 0.5 0 0 
0.625 0 0 0.75 0 0 0.875 0 0 
1 0 0 1.125 0 0 1.25 0 0 
1.375 0 0 1.5 0 0 1.625 0 0 
1.75 0 0 1.875 0 0 2 0 0 
2.125 0 0 2.25 0 0 2.375 0 0 
2.5 0 0 2.625 0 0 2.75 0 0 
2.875 0 0 3 0 0 3.125 0 0 
3.25 0 0 3.375 0 0 3.5 0 0 
3.625 0 0 3.75 0 0 3.875 0 0 
4 0 0 4.125 0 0 4.25 0 0 
4.375 0 0 4.5 0 0 4.625 0 0 
4.75 0 0 4.875 0 0 5 0 0 
5.125 0 0 5.25 0 0 5.375 0 0 
5.5 0 0 5.625 0 0 5.75 0 0 
5.875 0 0 6 0 0 6.125 0 0 
6.25 0 0 6.375 0 0 6.5 0 0 
6.625 0 0 6.75 0 0 6.875 0 0 
0 6.875 0 0 6.75 0 0 6.625 0 
0 6.5 0 0 6.375 0 0 6.25 0 
0 6.125 0 0 6 0 0 5.875 0 
0 5.75 0 0 5.625 0 0 5.5 0 
0 5.375 0 0 5.25 0 0 5.125 0 
0 5 0 0 4.875 0 0 4.75 0 
0 4.625 0 0 4.5 0 0 4.375 0 
0 4.25 0 0 4.125 0 0 4 0 
0 3.875 0 0 3.75 0 0 3.625 0 
0 3.5 0 0 3.375 0 0 3.25 0 
0 3.125 0 0 3 0 0 2.875 0 
0 2.75 0 0 2.625 0 0 2.5 0 
0 2.375 0 0 2.25 0 0 2.125 0 
0 2 0 0 1.875 0 0 1.75 0 
0 1.625 0 0 1.5 0 0 1.375 0 
0 1.25 0 0 1.125 0 0 1 0 
0 0.875 0 0 0.75 0 0 0.625 0 
0 0.5 0 0 0.375 0 0 0.25 0 
0 0.125 0 7 0.125 0 7 0.25 0 
7 0.375 0 7 0.5 0 7 0.625 0 
7 0.75 0 7 0.875 0 7 1 0 
7 1.125 0 7 1.25 0 7 1.375 0 
7 1.5 0 7 1.625 0 7 1.75 0 
7 1.875 0 7 2 0 7 2.125 0 
7 2.25 0 7 2.375 0 7 2.5 0 
7 2.625 0 7 2.75 0 7 2.875 0 
7 3 0 7 3.125 0 7 3.25 0 
7 3.375 0 7 3.5 0 7 3.625 0 
7 3.75 0 7 3.875 0 7 4 0 
7 4.125 0 7 4.25 0 7 4.375 0 
7 4.5 0 7 4.625 0 7 4.75 0 
7 4.875 0 7 5 0 7 5.125 0 
7 5.25 0 7 5.375 0 7 5.5 0 
7 5.625 0 7 5.75 0 7 5.875 0 
7 6 0 7 6.125 0 7 6.25 0 
7 6.375 0 7 6.5 0 7 6.625 0 
7 6.75 0 7 6.875 0 6.875 7 0 
6.75 7 0 6.625 7 0 6.5 7 0 
6.375 7 0 6.25 7 0 6.125 7 0 
6 7 0 5.875 7 0 5.75 7 0 
5.625 7 0 5.5 7 0 5.375 7 0 
5.25 7 0 5.125 7 0 5 7 0 
4.875 7 0 4.75 7 0 4.625 7 0 
4.5 7 0 4.375 7 0 4.25 7 0 
4.125 7 0 4 7 0 3.875 7 0 
3.75 7 0 3.625 7 0 3.5 7 0 
3.375 7 0 3.25 7 0 3.125 7 0 
3 7 0 2.875 7 0 2.75 7 0 
2.625 7 0 2.5 7 0 2.375 7 0 
2.25 7 0 2.125 7 0 2 7 0 
1.875 7 0 1.75 7 0 1.625 7 0 
1.5 7 0 1.375 7 0 1.25 7 0 
1.125 7 0 1 7 0 0.875 7 0 
0.75 7 0 0.625 7 0 0.5 7 0 
0.375 7 0 0.25 7 0 0.125 7 0 
1.125 1 0 1.25 1 0 1.375 1 0 
1.5 1 0 1.625 1 0 1.75 1 0 
1.875 1 0 2 1.125 0 2 1.25 0 
2 1.375 0 2 1.5 0 2 1.625 0 
2 1.75 0 2 1.875 0 1.875 2 0 
1.75 2 0 1.625 2 0 1.5 2 0 
1.375 2 0 1.25 2 0 1.125 2 0 
1 1.875 0 1 1.75 0 1 1.625 0 
1 1.5 0 1 1.375 0 1 1.25 0 
1 1.125 0 5 1.875 0 5 1.75 0 
5 1.625 0 5 1.5 0 5 1.375 0 
5 1.25 0 5 1.125 0 5.125 1 0 
5.25 1 0 5.375 1 0 5.5 1 0 
5.625 1 0 5.75 1 0 5.875 1 0 
6 1.125 0 6 1.25 0 6 1.375 0 
6 1.5 0 6 1.625 0 6 1.75 0 
6 1.875 0 5.875 2 0 5.75 2 0 
5.625 2 0 5.5 2 0 5.375 2 0 
5.25 2 0 5.125 2 0 2.125 2 0 
2.25 2 0 2.375 2 0 2.5 2 0 
2.625 2 0 2.75 2 0 2.875 2 0 
3 1.875 0 3 1.75 0 3 1.625 0 
3 1.5 0 3 1.375 0 3 1.25 0 
3 1.125 0 3.125 1 0 3.25 1 0 
3.375 1 0 3.5 1 0 3.625 1 0 
3.75 1 0 3.875 1 0 4 1.125 0 
4 1.25 0 4 1.375 0 4 1.5 0 
4 1.625 0 4 1.75 0 4 1.875 0 
4.125 2 0 4.25 2 0 4.375 2 0 
4.5 2 0 4.625 2 0 4.75 2 0 
4.875 2 0 5 2.125 0 5 2.25 0 
5 2.375 0 5 2.5 0 5 2.625 0 
5 2.75 0 5 2.875 0 5.125 3 0 
5.25 3 0 5.375 3 0 5.5 3 0 
5.625 3 0 5.75 3 0 5.875 3 0 
6 3.125 0 6 3.25 0 6 3.375 0 
6 3.5 0 6 3.625 0 6 3.75 0 
6 3.875 0 5.875 4 0 5.75 4 0 
5.625 4 0 5.5 4 0 5.375 4 0 
5.25 4 0 5.125 4 0 5 4.125 0 
5 4.25 0 5 4.375 0 5 4.5 0 
5 4.625 0 5 4.75 0 5 4.875 0 
4.875 5 0 4.75 5 0 4.625 5 0 
4.5 5 0 4.375 5 0 4.25 5 0 
4.125 5 0 4 4.875 0 4 4.75 0 
4 4.625 0 4 4.5 0 4 4.375 0 
4 4.25 0 4 4.125 0 3.875 4 0 
3.75 4 0 3.625 4 0 3.5 4 0 
3.375 4 0 3.25 4 0 3.125 4 0 
3 4.125 0 3 4.25 0 3 4.375 0 
3 4.5 0 3 4.625 0 3 4.75 0 
3 4.875 0 2.875 5 0 2.75 5 0 
2.625 5 0 2.5 5 0 2.375 5 0 
2.25 5 0 2.125 5 0 2 4.875 0 
2 4.75 0 2 4.625 0 2 4.5 0 
2 4.375 0 2 4.25 0 2 4.125 0 
1.875 4 0 1.75 4 0 1.625 4 0 
1.5 4 0 1.375 4 0 1.25 4 0 
1.125 4 0 1 3.875 0 1 3.75 0 
1 3.625 0 1 3.5 0 1 3.375 0 
1 3.25 0 1 3.125 0 1.125 3 0 
1.25 3 0 1.375 3 0 1.5 3 0 
1.625 3 0 1.75 3 0 1.875 3 0 
2 2.875 0 2 2.75 0 2 2.625 0 
2 2.5 0 2 2.375 0 2 2.25 0 
2 2.125 0 2 5.125 0 2 5.25 0 
2 5.375 0 2 5.5 0 2 5.625 0 
2 5.75 0 2 5.875 0 1.875 6 0 
1.75 6 0 1.625 6 0 1.5 6 0 
1.375 6 0 1.25 6 0 1.125 6 0 
1 5.875 0 1 5.75 0 1 5.625 0 
1 5.5 0 1 5.375 0 1 5.25 0 
1 5.125 0 1.125 5 0 1.25 5 0 
1.375 5 0 1.5 5 0 1.625 5 0 
1.75 5 0 1.875 5 0 5.125 5 0 
5.25 5 0 5.375 5 0 5.5 5 0 
5.625 5 0 5.75 5 0 5.875 5 0 
6 5.125 0 6 5.25 0 6 5.375 0 
6 5.5 0 6 5.625 0 6 5.75 0 
6 5.875 0 5.875 6 0 5.75 6 0 
5.625 6 0 5.5 6 0 5.375 6 0 
5.25 6 0 5.125 6 0 5 5.875 0 
5 5.75 0 5 5.625 0 5 5.5 0 
5 5.375 0 5 5.25 0 5 5.125 0 
3 2.125 0 3 2.25 0 3 2.375 0 
3 2.5 0 3 2.625 0 3 2.75 0 
3 2.875 0 3.125 3 0 3.25 3 0 
3.375 3 0 3.5 3 0 3.625 3 0 
3.75 3 0 3.875 3 0 4 2.875 0 
4 2.75 0 4 2.625 0 4 2.5 0 
4 2.375 0 4 2.25 0 4 2.125 0 
3.875 2 0 3.75 2 0 3.625 2 0 
3.5 2 0 3.375 2 0 3.25 2 0 
3.125 2 0 2 3.125 0 2 3.25 0 
2 3.375 0 2 3.5 0 2 3.625 0 
2 3.75 0 2 3.875 0 2.125 4 0 
2.25 4 0 2.375 4 0 2.5 4 0 
2.625 4 0 2.75 4 0 2.875 4 0 
3 3.875 0 3 3.75 0 3 3.625 0 
3 3.5 0 3 3.375 0 3 3.25 0 
3 3.125 0 2.875 3 0 2.75 3 0 
2.625 3 0 2.5 3 0 2.375 3 0 
2.25 3 0 2.125 3 0 4 3.125 0 
4 3.25 0 4 3.375 0 4 3.5 0 
4 3.625 0 4 3.75 0 4 3.875 0 
4.125 4 0 4.25 4 0 4.375 4 0 
4.5 4 0 4.625 4 0 4.75 4 0 
4.875 4 0 5 3.875 0 5 3.75 0 
5 3.625 0 5 3.5 0 5 3.375 0 
5 3.25 0 5 3.125 0 4.875 3 0 
4.75 3 0 4.625 3 0 4.5 3 0 
4.375 3 0 4.25 3 0 4.125 3 0 
1.887575619 1.5714876988 0 1.1107249392 1.4359051369 0 1.4375 1.8917468245 0 
1.5625 1.1082531755 0 1.3098559939 1.1070357462 0 1.8879629844 1.3016592932 0 
1.687189134 1.8955068139 0 1.1182626851 1.6692259739 0 1.8119703288 1.1058465056 0 
1.8792304632 1.8130906424 0 1.1875 1.8917468245 0 1.1094851922 1.2033420656 0 
1.4370234726 1.1080709742 0 1.4998847191 1.2164966877 0 1.6249807865 1.2165047404 0 
1.5624775843 1.3247576474 0 1.4356051932 1.3236322156 0 1.4996804629 1.4328245036 0 
1.6249430079 1.4329810223 0 1.5624372451 1.5412292311 0 1.4374362847 1.5412284033 0 
1.5 1.6495190528 0 1.6249895409 1.6495129451 0 1.3749893808 1.6495128072 0 
1.3124876109 1.5412585907 0 1.5625 1.7577722283 0 1.25 1.6495190528 0 
1.3133247279 1.7523683915 0 1.6866188091 1.7523230899 0 1.7670612806 1.6402138216 0 
1.187585964 1.5449925944 0 1.25 1.4330127019 0 1.1778732194 1.3232140481 0 
1.3014840143 1.317882982 0 1.2355956823 1.2135264975 0 1.6838577692 1.326847018 0 
1.7451254839 1.4342201171 0 1.7689004215 1.2271514487 0 1.6875 1.5412658774 0 
1.372782261 1.4316398995 0 1.3722967487 1.2155133675 0 1.6905585895 1.1096259784 0 
1.8719099127 1.435584842 0 1.8896545056 1.690451448 0 1.5625 1.8917468245 0 
1.3125 1.8917468245 0 1.4375 1.7577722283 0 1.8959539776 1.1864136941 0 
1.8081462788 1.9070743513 0 1.1034157831 1.8066379932 0 1.1911333561 1.1028269136 0 
1.794305897 1.7442868009 0 1.2010889394 1.7499266505 0 1.7918344592 1.5245544714 0 
1.0845357012 1.5625 0 1.7915513143 1.3450925438 0 1.0773375545 1.3125 0 
1.0915063509 1.0915063509 0 1.9084936491 1.0915063509 0 1.9084936491 1.9084936491 0 
1.0915063509 1.9084936491 0 1.375 1.8247595264 0 1.5 1.8247595264 0 
1.625 1.8247595264 0 1.260161346 1.8246930337 0 1.7489644266 1.8253550026 0 
1.8892750608 3.5640948631 0 1.4375 3.8917468245 0 1.112424381 3.4285123012 0 
1.5625 3.1082531755 0 1.6901440061 3.8929642538 0 1.1120370156 3.6983407068 0 
1.312810866 3.1044931861 0 1.8817373149 3.3307740261 0 1.1880296712 3.8941534944 0 
1.1207695368 3.1869093576 0 1.8125 3.1082531755 0 1.8905148078 3.7966579344 0 
1.3125882785 3.8921479362 0 1.3750147131 3.783560501 0 1.5000383119 3.7834840874 0 
1.4375088375 3.675250022 0 1.5643797155 3.6763658585 0 1.5003147588 3.5671764537 0 
1.3750539327 3.5670204154 0 1.4375614486 3.4587711681 0 1.5625627012 3.4587718228 0 
1.5 3.3504809472 0 1.3750102414 3.3504871214 0 1.6250104502 3.3504872305 0 
1.6875121919 3.4587414532 0 1.4375 3.2422277717 0 1.75 3.3504809472 0 
1.6866752618 3.2476316108 0 1.3133811777 3.2476769141 0 1.2329386864 3.3597861884 0 
1.8124140193 3.4550074094 0 1.75 3.5669872981 0 1.8221267806 3.6767859519 0 
1.6985159857 3.682117018 0 1.7644043177 3.7864735025 0 1.3161387078 3.6731653735 0 
1.2548734191 3.5657821877 0 1.2311110435 3.7729169434 0 1.5629829127 3.8919274322 0 
1.6875 3.1082531755 0 1.6272142255 3.5683599841 0 1.6276959661 3.7844846985 0 
1.5625 3.2422277717 0 1.1280899306 3.5644154872 0 1.1103454904 3.3095485532 0 
1.4375 3.1082531755 0 1.3125 3.4587341226 0 1.1918537212 3.0929256487 0 
1.8965842169 3.1933620068 0 1.1040473873 3.8135944479 0 1.8088666439 3.8971730864 0 
1.2056940929 3.2557132022 0 1.7989110606 3.2500733495 0 1.2081652834 3.4754460574 0 
1.9154642988 3.4375 0 1.2084500233 3.6549241397 0 1.9226624455 3.6875 0 
1.9084936491 3.9084936491 0 1.0915063509 3.0915063509 0 1.0915063509 3.9084936491 0 
1.9084936491 3.0915063509 0 1.375 3.1752404736 0 1.625 3.1752404736 0 
1.5 3.1752404736 0 1.7398386532 3.1753069664 0 1.2510355734 3.1746449974 0 
1.5625 5.8917468245 0 1.5625 5.1082531755 0 1.1110678776 5.5636502499 0 
1.8892750608 5.5640948631 0 1.117132183 5.3304612481 0 1.3135216272 5.8923366613 0 
1.8817373149 5.3307740261 0 1.3125 5.1082531755 0 1.8885060659 5.7959359385 0 
1.1132121559 5.8010217976 0 1.8125 5.1082531755 0 1.6875 5.8917468245 0 
1.6262862414 5.7832996166 0 1.5002143736 5.7834613103 0 1.5627501025 5.675202745 0 
1.4375 5.6752404736 0 1.5000416838 5.56698101 0 1.3750069473 5.5669862501 0 
1.4375081052 5.4587329 0 1.5625 5.4587341226 0 1.5000013509 5.3504807434 0 
1.375001576 5.3504807094 0 1.6250002251 5.3504809132 0 1.3125011579 5.6752402989 0 
1.6875 5.6752404736 0 1.6875000375 5.458734117 0 1.4375 5.2422277717 0 
1.75 5.3504809472 0 1.6866746408 5.2476312271 0 1.24685464 5.566066012 0 
[...]
CELL_DATA 7800
FIELD FieldData 1
flux 1 7800 double
4.7421967188e-05 3.4099928799e-05 2.3686502382e-06 2.5106145008e-05 1.9969729476e-05 1.5754583695e-06 5.6455578744e-08 9.4313817563e-08 7.6798199212e-08 
2.2082918383e-07 4.0760607745e-07 2.8438835059e-07 1.21095503e-07 2.7226549787e-05 1.7734369411e-05 2.421754227e-05 2.7899112569e-07 2.169982821e-07 
1.8890939172e-05 4.4869515074e-06 1.55244225e-07 2.0784958377e-05 3.4577527942e-05 4.7309855518e-05 9.9213365317e-08 5.6487155085e-08 3.2140820224e-07 
1.8993429501e-07 3.9447830444e-07 3.3367210834e-06 5.0455597182e-06 2.8597475185e-06 6.0177063758e-06 3.0061263455e-06 1.5400428362e-05 7.2943003558e-07 
3.2493174765e-06 5.1147368214e-06 1.7254847992e-06 6.5611273335e-05 8.6996950131e-05 0.00011915360708 0.00017181329597 8.2643487764e-07 7.5586720437e-05 
5.2458839202e-07 8.035389375e-05 9.6256590013e-05 2.4184951242e-06 7.1283126028e-07 1.3150529273e-06 8.0027310591e-05 6.6475983303e-05 1.2365112098e-06 
1.4517003365e-06 3.1136227399e-06 1.3319169382e-06 8.1520076425e-06 0.0001786739789 0.00014932196679 0.0001462169528 0.00010049881613 5.5998169059e-05 
0.00011877502066 0.00014613968085 0.00015760329712 0.00016416128282 1.8348462313e-06 7.0295179196e-06 8.1444520869e-07 6.5567163501e-06 1.2513783441e-07 
1.7388714151e-06 3.0944237506e-05 6.397988358e-06 4.2543520154e-07 3.7286044007e-08 6.9130761975e-07 6.589572115e-06 7.3464008233e-07 2.6683236332e-06 
1.2865051036e-06 4.5452614659e-06 2.259284734e-06 4.6118279788e-07 6.9874707653e-07 1.2078014784e-05 1.5448644907e-06 4.1176634946e-06 1.9312510553e-07 
2.6895099943e-06 7.3417182196e-06 4.5744678052e-07 7.4451312621e-06 7.4412184433e-06 4.0664311008e-06 2.9921467356e-05 2.3901896146e-05 4.2270078285e-05 
0.00010951364927 2.8719113952e-05 0.00017756267901 8.0804855507e-07 3.76115077e-08 5.9339631752e-08 1.4401655983e-07 1.0049340657e-05 6.1935973303e-05 
0.00010149331041 3.8899086135e-08 1.1872398258e-05 6.76422917e-07 2.6168084446e-06 1.1975483951e-05 6.3802314459e-08 1.8384517312e-07 0.0001164094169 
0.00011453631238 0.00014620576407 9.2749062322e-05 9.9328679314e-05 0.00015617446528 1.4895442911e-08 1.4713130647e-08 3.5161874036e-05 1.2882451514e-05 
7.507362082e-06 1.1965350212e-05 1.1391205827e-05 1.7541753301e-06 1.0123272491e-05 0.00011505418355 7.0317011322e-05 4.6634228896e-05 1.2446249921e-07 
0.00010636758046 6.4297436413e-05 5.100806157e-05 2.2896997498e-08 2.3427093415e-08 2.2256212017e-05 2.9041463744e-05 5.2904798988e-05 1.9836011061e-05 
4.4219635334e-05 1.3512077375e-05 5.6116798536e-05 1.2487067813e-05 1.2852643062e-05 3.3105115597e-05 2.2032652217e-05 3.5504044721e-05 5.9616534363e-05 
6.4992802414e-05 5.1949858672e-05 5.9765414565e-05 1.9095873399e-05 2.7073750677e-05 2.5553949525e-08 4.2095748052e-05 1.4173819238e-05 1.5205422834e-05 
2.6790983055e-05 1.8727960905e-05 0.0079472269366 3.3891579047e-05 2.9922001694e-05 0.014124638375 0.0085810541024 0.0022325003919 0.014859608126 
0.0079744698246 0.0078271541759 0.001388608063 0.0025813740473 4.5124841002e-05 3.2387193601e-05 3.1552359048e-05 0.0024516594751 0.0013250197972 
3.1874371471e-05 0.0064984682974 0.0044439669252 0.0086819558628 0.0061925646125 2.2183884699e-05 0.0045667725329 0.0043370660407 0.00074027807468 
0.0013725670439 0.00078642916307 0.00075128201958 0.00075635139915 0.001332974863 0.0041850440433 0.00026514577268 0.00042420094222 0.0023948560532 
0.00012637361597 0.00055034770979 9.1501857403e-05 0.0004297264705 0.00013796271799 0.00074886729098 0.00067753463489 0.0004061842439 0.0023697941583 
0.0014366252297 0.0002442647715 0.00024351348112 0.0014338222889 0.00048332072318 9.6250803955e-05 0.00014828348734 0.00024565906378 0.00013919219326 
8.5059341934e-05 0.00024433478036 0.0013016119774 0.00014150743728 0.0012219596573 0.0041890124248 0.039103265639 0.042405994535 0.039156432061 
0.00055075384388 0.0002645637283 0.00014872623647 0.00041782925758 0.0021049996631 0.002792527653 0.0010458565455 0.00046400695538 0.00024158353497 
0.00014273776292 1.1649182163e-05 8.5515885323e-06 2.0304193186e-05 0.00023825335706 0.00046408153008 0.0010435454809 0.0027519960683 0.0083121940506 
0.00018930683084 7.8992297037e-05 0.00044103925239 0.00024322712998 8.2530539868e-05 0.00022676933036 0.0042831149131 1.2791367049e-05 1.7352279161e-05 
7.4137968955e-05 1.3919741687e-05 1.2285410112e-05 7.9201186632e-05 8.5208113355e-06 1.064779864e-05 4.8132709961e-05 3.9980809661e-05 2.040746093e-05 
2.1822318977e-05 0.00014594167423 0.039591988681 0.015379520216 0.0083515539471 0.0042604823011 0.015838045667 0.02193242184 1.7819230411e-05 
0.0001302610607 0.0071688571918 0.024977446831 0.025888267233 4.6771837008e-05 5.2034178963e-05 0.02621103804 0.026009824701 0.024059436954 
0.040028192334 9.8047852302e-05 5.7684669845e-05 0.023621453119 0.039302167529 9.4926756393e-05 5.6089264403e-05 2.5680557669e-05 5.1346434571e-05 
0.0038453762063 0.013682338554 5.3282385344e-05 0.047426984244 5.6915384493e-05 8.4181293282e-05 3.6353171969e-05 0.024176661041 0.047441395537 
0.023820813978 8.4428473469e-05 0.013506517698 3.3788137521e-05 0.013475904201 0.0021195796556 0.00071756975629 0.00025575049015 0.00069314899219 
0.0011522446516 0.0004698336322 0.0013082088323 0.00018887602288 0.00013870887627 0.0003898202806 0.00025241071875 0.0020486114272 0.00383276569 
4.8283347418e-05 5.1304177171e-05 0.014982148262 9.5290533166e-05 0.00010579133447 0.014591169111 8.902361414e-05 0.0034114362643 5.5430241604e-05 
5.0678898e-05 2.5816984255e-06 8.3492974403e-08 0.00010142394241 6.4675614643e-05 1.7116649883e-06 9.0020342936e-08 2.4595477852e-07 0.0001174208163 
4.376977867e-07 5.0884851465e-05 5.8553545814e-05 6.0801953472e-08 2.4967720644e-05 2.7789368117e-05 1.0539760857e-05 1.4068740407e-05 4.8256597646e-06 
4.6852957173e-05 7.7154195999e-07 4.3127679633e-05 6.5935656099e-05 2.1684325659e-05 5.2565460054e-05 3.5843602072e-05 1.3466621017e-06 1.6127448675e-07 
1.9030382026e-07 2.4186589147e-07 4.4226072596e-07 1.2712727962e-05 1.5038176465e-06 7.2175403557e-06 6.8611484414e-07 1.4726410259e-05 2.6323804662e-06 
3.9107337218e-07 1.5684387513e-06 1.0082187478e-06 3.9603707354e-06 1.2087978794e-05 2.6639310866e-05 1.2740091278e-06 0.00012673276771 4.6081974534e-06 
5.5515297255e-07 5.1804549565e-06 2.8231913668e-06 1.4148259628e-05 7.7934441032e-05 7.8015620905e-05 3.371218401e-06 0.00030352631671 0.00036911734964 
0.00035891096134 6.1259377931e-06 6.6403326159e-06 3.2909380906e-06 2.2065486658e-07 4.215309287e-08 4.6237399023e-07 6.8277578274e-06 0.0001736134556 
0.00017679447802 0.000168169169 0.00014302696509 0.00014269731626 2.6862411791e-05 6.0020477049e-06 3.4162877689e-06 1.8594405504e-06 4.1298092633e-06 
7.0336448568e-06 1.5610273811e-07 8.7067414247e-07 8.4869482191e-06 9.9367314349e-05 5.9723199244e-07 2.3233550882e-06 2.2323478485e-07 1.3801625059e-06 
9.296786316e-05 7.0386792561e-05 4.0547950939e-07 2.9534016579e-06 7.6449735592e-06 7.3884837395e-06 5.3327441517e-06 3.7101545836e-07 1.5180348742e-05 
1.3627582268e-05 8.4938550476e-07 1.0892161921e-06 1.6195797981e-06 2.3606744751e-06 2.4843649699e-05 1.0707958541e-07 0.00031116852809 6.0901879445e-05 
3.0784342049e-05 6.0742957608e-08 0.0001130737849 8.6727113354e-07 0.00012535321064 1.0667573765e-05 0.00015984846845 1.0186579986e-07 2.2634893749e-05 
0.0001834088575 0.00021168577867 2.065613079e-07 7.2558631506e-08 2.8131041567e-06 7.3463173126e-07 0.00021871111287 0.00024421929447 9.8291050693e-05 
0.00015470324309 0.00037130702942 0.00025322594202 0.00034148099927 0.00021078110989 2.1464761857e-08 1.921448921e-08 8.0036669429e-06 2.7992321027e-05 
1.2494249538e-05 9.7351144076e-05 0.00040180136544 1.3735251777e-07 1.9119597553e-06 0.00019113095874 0.00010147398889 3.5073750908e-08 4.9856052341e-05 
0.00044491454493 0.00011281049155 0.00022148514823 3.0615668656e-08 0.00014263949735 2.3751500326e-05 2.655259083e-05 1.6615161097e-05 1.318239779e-05 
1.3892753209e-05 2.1785374121e-05 5.9844974478e-05 5.1431062679e-05 4.706548691e-05 3.0560619356e-05 2.1653498096e-05 3.1982901387e-05 3.7905774827e-05 
3.3859208168e-05 5.3009462739e-05 6.1646550223e-05 3.8490942048e-08 0.00012525815283 0.00012451434739 6.3546144155e-05 1.5121296129e-05 2.9701141294e-05 
0.029638208277 0.018084268672 0.010858812588 0.00010766220281 0.0083939654867 0.00013299554574 0.053425287422 0.0025956443644 0.0066404398295 
0.0017057706617 0.041501895639 0.029139646088 0.00059553447377 0.00032228625761 0.0014197265321 0.0034060892453 0.03259750849 0.015262931965 
0.00083922452256 0.0026239461176 0.0072530462621 0.011145514149 0.0066544130707 6.6756040694e-05 0.0009983016792 3.8677537532e-05 4.754286692e-05 
0.010529996927 0.019171153509 0.0019816250752 0.0094248306491 0.0090102181426 0.0046044283642 0.011951129748 0.030123357621 0.0003151905872 
0.00011869579795 0.00050318086366 0.0038605850349 0.001187564192 0.00020936546132 0.00023441927207 6.9061957283e-05 6.1892783434e-05 0.046452154718 
0.033692026731 0.079518251671 0.05952397292 0.035446873473 0.019261146325 0.02178313559 0.012380515001 0.0037648776906 0.0012355914071 
0.00076243128554 0.00050785839441 0.00030477681554 0.00051765511557 0.00020500546007 0.00015915776128 0.0004651899923 0.00061936026651 0.00010961107841 
0.0259477621 0.04444837977 0.024566448979 0.015889239421 0.016953919814 0.0020867493893 0.00072233334442 0.00073674772487 0.00026225254594 
0.0009590614012 0.00012834600503 0.00047434802393 0.0001099865066 0.036066812315 0.060189650997 0.10710309405 0.079278610793 0.043150819107 
0.025780236372 0.0065627585118 0.0021276208054 0.001290629868 0.00042635799499 0.00010275278989 0.00027897926728 0.0016176155367 0.00016301319068 
0.0040501549051 0.0036795110728 0.0052193482006 7.3661100809e-05 0.0040621530248 0.10815995768 0.00023786167718 0.02824828051 0.0207398805 
0.00086494642171 0.059879344073 6.6505031291e-05 0.0017367879581 0.0027301096225 0.0052885977278 0.0035253399315 0.0099308137248 0.00024921338164 
0.00013702486527 0.0016282777333 0.0023208630821 0.00068510444495 0.0016733422053 0.013734458791 0.02229040977 0.16020825225 0.1600485088 
6.386707163e-05 6.308677488e-05 0.014190828587 0.022985531877 0.0042341486785 0.0037255035138 0.0088249923355 7.0974541199e-05 0.0042347396762 
0.0057775555854 5.774160416e-05 0.00023648494495 0.0012178839396 0.0071319425896 0.0064902511928 0.089805464721 5.1857044799e-05 0.0012303166552 
0.0060276762035 5.0719005316e-05 0.016583562014 0.089531416775 0.017818630019 7.2092966975e-05 0.00036801076099 0.00047422227272 0.00024173833852 
0.00080343635918 0.00025768830513 0.00010390203932 0.0001360833106 0.00073704053567 9.9780588252e-05 0.00016301645575 6.5014259233e-05 5.454151005e-05 
4.4806129698e-05 0.061085151727 0.0088519490496 0.0017031906785 0.0012374543266 0.0082294037145 0.0022938533477 5.5152949682e-05 0.0027777051779 
0.0032778416057 0.00017587074625 0.0080601614313 0.0016393972121 0.00021697298307 0.014273812963 0.02103240497 0.017944728897 0.035635709956 
0.01432720819 0.0091588582747 0.0035971522508 0.010545533664 0.0056349897479 0.00073207218063 0.00043450559039 0.0045029447258 0.0059686586496 
0.0001074430776 0.0051403483057 0.007922504086 0.0059317066323 0.003738311251 0.0010263115333 0.011966004654 0.031854988212 0.00049468721067 
0.0092238837797 0.034490926172 0.037262209142 0.021344623949 0.00011521484261 0.00044899900084 0.00022457186186 0.0039716860082 0.0017799734501 
0.012368693732 0.0092748840937 0.0037708992136 0.0021201512566 0.0014661014527 0.002072900119 0.00076324892738 0.00088807694714 0.00049687155879 
0.00026446688638 0.00070834775358 0.00019627333036 0.00029198166071 0.00010721825587 0.0021524304806 0.0014637106532 0.0029862924382 0.044199220662 
0.026959640167 0.00010969225534 0.00056831679208 0.016180500217 0.0066476393524 0.0027307479433 0.006531252051 0.0012399589718 0.0012987917216 
0.00043394309453 0.00029834086322 0.0011956323319 0.00012671747611 0.0037082921281 0.078901954886 0.061232844683 0.04760843435 0.0296289492 
0.0022008613947 0.00097297679233 0.00054509824537 0.00032260107608 0.00018978516688 0.00020599191793 0.0012107075497 0.034852088266 0.060452502456 
0.10615739989 0.021614628993 0.0047072101483 0.0033018691732 0.00072504088927 0.0017383789627 0.00048024192925 0.0052094119693 0.00017108703863 
0.0010566252586 0.00029300512383 0.00086057925824 0.00049825598408 0.00017138992436 0.012288655113 5.4131959643e-05 7.0033544997e-05 0.00038404146591 
0.0056126163616 8.7140337921e-05 0.02793369097 0.01927163326 0.10870604244 0.060845446359 0.026582703746 7.0899503076e-05 0.002839028312 
0.019943080838 0.03239608067 0.0002182100726 0.035951240585 0.029372569494 0.0020912391112 0.050579039662 0.064240714386 0.016974197992 
0.16072461512 0.025730088014 0.16063837487 0.00014873565162 0.0001121968798 0.014110041564 0.02285768165 9.2133776711e-05 9.8049550646e-05 
0.0029698890384 0.010303938317 0.052340676039 0.00035141412781 0.0010863510144 0.0081216881778 0.017574573172 7.5717008619e-05 0.093040511655 
0.019284253829 0.006519334432 0.00012496713425 0.085287638325 0.0895296126 0.0012734329071 0.00040387995132 0.00068371284461 0.00010079993165 
0.00021748147298 0.00032579196745 0.0001281499384 0.00023369459037 0.00014965145836 0.00062174005014 9.6606324657e-05 0.001038155225 0.0023977810099 
8.0108370767e-05 0.0089599981178 0.010077054997 7.4622837357e-05 6.5826445213e-05 0.057916173177 6.2040492517e-05 0.0020562327569 6.7688021117e-05 
0.012318072255 2.7289939713e-05 0.0072508999263 0.012605907579 1.7744243562e-05 0.007298355205 7.4129309295e-05 6.8844883767e-05 3.3681011791e-05 
3.2989264862e-05 0.00010249954042 2.1317398174e-05 2.5503930443e-05 0.0078323950386 2.5661270837e-05 0.00013163516202 8.6819120404e-05 0.0078171489435 
0.0068869809531 0.0070790130964 7.4658923961e-05 0.00013604612919 4.6368254156e-05 0.01317355634 4.8028694145e-05 8.5323515326e-05 0.0014713801653 
0.00025066737339 0.00071443673767 0.001266612593 0.02153622899 0.0045147664246 0.039406676415 0.00039790559 0.00024711857547 0.00056042648326 
0.0042729406514 0.021213722003 0.00077015100165 0.0012540426834 0.0022978805254 0.00071237526938 0.00013299260086 0.002221520062 0.0043144592942 
0.00056315876149 0.00023885009377 0.0014591710255 0.0014233196539 0.00027144040595 0.00040966670617 0.0022871200377 0.0012792022168 0.00040515210299 
0.0022825637051 0.0012341874357 0.0002352089907 0.001329647606 7.9561924709e-05 0.041892057785 0.040567259473 0.0022751003089 0.0046012933775 
0.00075277349352 0.0022263268974 0.00024428028527 0.0084623119718 0.0028328775867 0.0010695548607 0.00047307715652 0.00024468853704 2.084937302e-05 
8.0904302719e-06 1.0892500117e-05 0.00023217261576 0.00047293707841 0.0010601092002 0.0028078172412 0.008313810974 0.00050218316522 0.00019273621739 
0.00041111111891 0.00071940561057 4.6134324126e-05 4.4643393813e-05 0.00072849342512 0.00022998337128 0.00043932742346 0.00013235846638 0.00023082322703 
7.753170072e-05 0.024004054372 2.6183989425e-05 5.8781869174e-05 0.00012319487756 0.0091453673364 0.013310441981 0.00014287085989 0.040064720428 
0.00012667283359 1.7404436854e-05 8.9482946458e-05 0.041461357081 1.6192441851e-05 0.014878724288 0.00014440413529 0.00013035333375 1.7843872569e-05 
0.022605102701 4.6366122786e-05 4.0610465995e-05 0.0043136916574 1.2589962341e-05 1.1163532017e-05 0.0042571745907 1.683806604e-05 1.2343522391e-05 
0.024195308931 0.040249501187 9.7106096694e-05 5.7279895375e-05 2.1572596406e-05 0.00015612017119 0.023168075311 5.7542773433e-05 9.8535084856e-05 
0.023973371499 0.039913047682 0.0066244845863 0.041487946561 8.918897259e-06 0.0039893425146 0.0039430001661 0.024330527631 1.1684674083e-05 
0.013565117152 0.013720569694 3.4160631456e-05 0.015392986936 8.460437299e-05 8.434451767e-05 0.00025583700584 0.0021812621049 0.003602868113 
0.00047085150222 0.0020586434476 0.0013126765837 0.003987366528 0.0007178649511 0.0011515119913 0.00038784792788 0.00069972145874 0.00026399122066 
0.00019512115057 0.015015572779 4.8337916655e-05 4.8445612421e-05 3.4544820643e-05 0.00014961916771 0.02527311896 0.91612736627 0.96837753528 
0.98991123501 0.96528912525 1.0028659458 0.94772371057 0.87586067984 0.93587645715 0.96866562333 0.90553211578 0.90381172262 
0.92163835999 0.9934469344 1.0034819357 1.0752714434 1.0051789962 0.89962354271 0.97769024193 1.0652323477 1.0516820048 
1.0197315075 1.0125204435 0.96804740308 0.97518649631 1.0221737513 0.89350752412 0.91091694962 1.0070706856 0.961970608 
0.99600120114 0.90727624197 0.90614889277 0.85072441438 0.90163780255 0.84926695089 0.85446657253 0.99891855656 1.0412321564 
1.0673303633 0.99956901505 1.100172633 1.1147323227 1.1092466857 1.0965844668 1.0472611282 1.0638763976 1.0459496048 
1.0748793428 1.0627165122 0.89183198798 0.89176219164 0.88614313247 0.88902523019 0.89548465991 0.97029380565 0.97422770314 
1.0411746576 1.097599575 1.110215767 1.0938890077 1.040625094 1.0970028163 1.0465115535 1.0470811811 0.82970104233 
0.85808025544 0.85821662587 0.83101972181 0.77678665623 0.82741349504 0.85322094011 0.85407493907 0.82870636103 0.77503040684 
0.83226614022 0.86686534343 0.83077507756 0.78260930519 0.83133898413 0.85241650624 0.7760135557 0.95470378894 0.95433600019 
0.91475414373 1.091494728 1.1083571322 1.0990086735 1.0456643232 1.0777314013 1.077820019 1.0445053543 0.8869507981 
0.92005039593 0.7665461068 0.77523961308 0.77245466585 0.95058938775 0.77307244552 0.84711728865 0.92863282023 0.84383226166 
0.8515387197 0.8535176434 1.0805010287 0.90059092443 1.076359138 1.0115988284 0.88056592223 0.89311093625 1.1004275614 
1.0669383122 0.87593660854 0.83774769331 0.69342714169 0.69298615565 0.69430725817 0.69411890822 0.69430681862 0.69353409879 
0.69281340823 0.69322535117 1.0715949794 0.99826301778 0.91110983764 0.99938899708 1.0548805709 1.0508760773 0.90368538177 
0.8397809129 1.0945632739 1.0361793037 0.76974858275 0.77276651734 0.77379057553 0.80894613682 0.77378886977 0.77154478838 
0.7768610622 0.7794832844 0.77292271362 0.97064895891 0.92960925435 0.94254941344 0.9258754942 1.0258004607 1.0118988587 
0.96898518184 0.99744973062 0.9703284907 1.0119564098 0.99659820317 0.94159486229 0.89013403001 0.81618823024 0.81687568595 
0.81768614594 0.96874483052 0.93825578221 0.82395983082 0.88603938524 0.96836419496 0.96676106573 0.0028042026951 5.0459746499e-05 
0.0039187282079 0.001233163564 0.019590782361 0.00075851044621 0.010932705144 6.0247838984e-05 0.00039536456126 0.0050633526462 0.0034610498207 
0.0081425055334 0.014277916644 0.0023736897745 0.03518744236 3.9505502325e-05 0.00011583150247 0.0086921734771 0.025056980292 0.00018704405912 
0.001785730245 0.001238032864 0.017962823058 0.011204627928 0.033448513775 0.023652679977 9.2520162749e-05 0.020249424737 0.0060580373432 
0.00042077184122 0.00014592759019 0.00017730139552 0.0012013230149 0.00027022739331 0.00040680830119 0.00012214947313 0.0002922598452 0.00030265259001 
0.0019664700886 0.0036620690804 0.00015693562542 0.00070799313564 0.0025708302772 0.00077497262082 0.00075231980376 0.00010613786897 7.7985649793e-05 
0.0038783130489 0.00045651073388 0.00059738837558 0.00010992307655 0.00010174889747 0.05953346546 0.043593694959 0.0017327463699 0.00022564430426 
0.033107850835 0.0011773320303 0.0001978309039 7.5575551671e-05 0.00012017473368 0.0002258606321 0.00048160053638 0.0013072309878 0.0041230543279 
0.10617378647 0.078449858744 0.061043245212 0.043910284905 0.046772814467 0.036736153096 0.026562670599 0.044655041664 0.078094248803 
0.00045053319692 0.0010872406545 0.0011479936691 0.0021145393029 5.2285832521e-05 0.00011936581508 0.00060784316778 0.058947315556 0.034234362432 
6.2265507194e-05 0.00076136257658 0.00069868248816 0.0014070973786 0.005627727048 6.7445218367e-05 0.0002500941292 0.0019667681625 0.00018793153658 
0.0004198421215 0.0032716203833 0.0060978428776 0.00025631715098 0.00057651747655 0.0062106160968 0.0070388682257 0.0038475519596 0.00025549835143 