# vtk DataFile Version 4.2
vtk output
ASCII
DATASET UNSTRUCTURED_GRID
POINTS 4342 double
-0.6 -0.6 0 0.6 -0.6 0 0.6 0.6 0 
-0.6 0.6 0 0 0 0 -0.58 -0.6 0 
-0.56 -0.6 0 -0.54 -0.6 0 -0.52 -0.6 0 
-0.5 -0.6 0 -0.48 -0.6 0 -0.46 -0.6 0 
-0.44 -0.6 0 -0.42 -0.6 0 -0.4 -0.6 0 
-0.38 -0.6 0 -0.36 -0.6 0 -0.34 -0.6 0 
-0.32 -0.6 0 -0.3 -0.6 0 -0.28 -0.6 0 
-0.26 -0.6 0 -0.24 -0.6 0 -0.22 -0.6 0 
-0.2 -0.6 0 -0.18 -0.6 0 -0.16 -0.6 0 
-0.14 -0.6 0 -0.12 -0.6 0 -0.1 -0.6 0 
-0.08 -0.6 0 -0.06 -0.6 0 -0.04 -0.6 0 
-0.02 -0.6 0 -8.881784197e-16 -0.6 0 0.02 -0.6 0 
0.04 -0.6 0 0.06 -0.6 0 0.08 -0.6 0 
0.1 -0.6 0 0.12 -0.6 0 0.14 -0.6 0 
0.16 -0.6 0 0.18 -0.6 0 0.2 -0.6 0 
0.22 -0.6 0 0.24 -0.6 0 0.26 -0.6 0 
0.28 -0.6 0 0.3 -0.6 0 0.32 -0.6 0 
0.34 -0.6 0 0.36 -0.6 0 0.38 -0.6 0 
0.4 -0.6 0 0.42 -0.6 0 0.44 -0.6 0 
0.46 -0.6 0 0.48 -0.6 0 0.5 -0.6 0 
0.52 -0.6 0 0.54 -0.6 0 0.56 -0.6 0 
0.58 -0.6 0 0.6 -0.58 0 0.6 -0.56 0 
0.6 -0.54 0 0.6 -0.52 0 0.6 -0.5 0 
0.6 -0.48 0 0.6 -0.46 0 0.6 -0.44 0 
0.6 -0.42 0 0.6 -0.4 0 0.6 -0.38 0 
0.6 -0.36 0 0.6 -0.34 0 0.6 -0.32 0 
0.6 -0.3 0 0.6 -0.28 0 0.6 -0.26 0 
0.6 -0.24 0 0.6 -0.22 0 0.6 -0.2 0 
0.6 -0.18 0 0.6 -0.16 0 0.6 -0.14 0 
0.6 -0.12 0 0.6 -0.1 0 0.6 -0.08 0 
0.6 -0.06 0 0.6 -0.04 0 0.6 -0.02 0 
0.6 -8.881784197e-16 0 0.6 0.02 0 0.6 0.04 0 
0.6 0.06 0 0.6 0.08 0 0.6 0.1 0 
0.6 0.12 0 0.6 0.14 0 0.6 0.16 0 
0.6 0.18 0 0.6 0.2 0 0.6 0.22 0 
0.6 0.24 0 0.6 0.26 0 0.6 0.28 0 
0.6 0.3 0 0.6 0.32 0 0.6 0.34 0 
0.6 0.36 0 0.6 0.38 0 0.6 0.4 0 
0.6 0.42 0 0.6 0.44 0 0.6 0.46 0 
0.6 0.48 0 0.6 0.5 0 0.6 0.52 0 
0.6 0.54 0 0.6 0.56 0 0.6 0.58 0 
0.58 0.6 0 0.56 0.6 0 0.54 0.6 0 
0.52 0.6 0 0.5 0.6 0 0.48 0.6 0 
0.46 0.6 0 0.44 0.6 0 0.42 0.6 0 
0.4 0.6 0 0.38 0.6 0 0.36 0.6 0 
0.34 0.6 0 0.32 0.6 0 0.3 0.6 0 
0.28 0.6 0 0.26 0.6 0 0.24 0.6 0 
0.22 0.6 0 0.2 0.6 0 0.18 0.6 0 
0.16 0.6 0 0.14 0.6 0 0.12 0.6 0 
0.1 0.6 0 0.08 0.6 0 0.06 0.6 0 
0.04 0.6 0 0.02 0.6 0 8.881784197e-16 0.6 0 
-0.02 0.6 0 -0.04 0.6 0 -0.06 0.6 0 
-0.08 0.6 0 -0.1 0.6 0 -0.12 0.6 0 
-0.14 0.6 0 -0.16 0.6 0 -0.18 0.6 0 
-0.2 0.6 0 -0.22 0.6 0 -0.24 0.6 0 
-0.26 0.6 0 -0.28 0.6 0 -0.3 0.6 0 
-0.32 0.6 0 -0.34 0.6 0 -0.36 0.6 0 
-0.38 0.6 0 -0.4 0.6 0 -0.42 0.6 0 
-0.44 0.6 0 -0.46 0.6 0 -0.48 0.6 0 
-0.5 0.6 0 -0.52 0.6 0 -0.54 0.6 0 
-0.56 0.6 0 -0.58 0.6 0 -0.6 0.58 0 
-0.6 0.56 0 -0.6 0.54 0 -0.6 0.52 0 
-0.6 0.5 0 -0.6 0.48 0 -0.6 0.46 0 
-0.6 0.44 0 -0.6 0.42 0 -0.6 0.4 0 
-0.6 0.38 0 -0.6 0.36 0 -0.6 0.34 0 
-0.6 0.32 0 -0.6 0.3 0 -0.6 0.28 0 
-0.6 0.26 0 -0.6 0.24 0 -0.6 0.22 0 
-0.6 0.2 0 -0.6 0.18 0 -0.6 0.16 0 
-0.6 0.14 0 -0.6 0.12 0 -0.6 0.1 0 
-0.6 0.08 0 -0.6 0.06 0 -0.6 0.04 0 
-0.6 0.02 0 -0.6 8.881784197e-16 0 -0.6 -0.02 0 
-0.6 -0.04 0 -0.6 -0.06 0 -0.6 -0.08 0 
-0.6 -0.1 0 -0.6 -0.12 0 -0.6 -0.14 0 
-0.6 -0.16 0 -0.6 -0.18 0 -0.6 -0.2 0 
-0.6 -0.22 0 -0.6 -0.24 0 -0.6 -0.26 0 
-0.6 -0.28 0 -0.6 -0.3 0 -0.6 -0.32 0 
-0.6 -0.34 0 -0.6 -0.36 0 -0.6 -0.38 0 
-0.6 -0.4 0 -0.6 -0.42 0 -0.6 -0.44 0 
-0.6 -0.46 0 -0.6 -0.48 0 -0.6 -0.5 0 
-0.6 -0.52 0 -0.6 -0.54 0 -0.6 -0.56 0 
-0.6 -0.58 0 0.25 -0.58267949192 0 -0.25 -0.58267949192 0 
-0.24969338163 0.58271630631 0 0.58313820224 0.25089999788 0 -0.58073798855 0.23055415423 0 
0.23 0.58267949192 0 0.5822727489 -0.23023532651 0 -0.58232885758 -0.22986293355 0 
-0.13 -0.58267949192 0 0.58091085312 0.12866705289 0 -0.13050081 0.58443309409 0 
0.13 -0.58267949192 0 0.11 0.58267949192 0 0.58128887437 -0.11185352307 0 
-0.58641004823 0.11046978504 0 -0.58097603768 -0.11235367818 0 -0.01 0.5841811861 0 
0.01 -0.58267949192 0 0.58217507245 0.011050809949 0 -0.58206506685 -0.010494327869 0 
0.58255589861 -0.33012459525 0 -0.58098267687 0.33246863147 0 0.33 0.58267949192 0 
-0.58090018381 -0.32734039494 0 0.35 -0.58267949192 0 0.58210978525 0.34851718814 0 
-0.34984356206 0.58269328777 0 -0.35 -0.58267949192 0 -0.58404031657 -0.41125547479 0 
0.58404031657 -0.41125547479 0 0.41 0.58267949192 0 -0.58127371569 0.40748932397 0 
0.43 -0.58267949192 0 0.58287041801 0.42966930632 0 -0.43030661837 0.58271630631 0 
-0.43 -0.58267949192 0 0.49 0.58267949192 0 0.58119455181 -0.49272606834 0 
-0.58196591894 0.48785347999 0 -0.58132747275 -0.49216380446 0 0.58099079541 0.19297246443 0 
-0.18926154554 0.58413656679 0 0.05 0.58267949192 0 0.19 -0.58267949192 0 
-0.07 -0.58267949192 0 0.58212565717 -0.051217328366 0 -0.07 0.58267949192 0 
0.58245912871 0.070013739955 0 0.07 -0.58267949192 0 0.58168449499 -0.17128271923 0 
-0.58574378526 0.05125913651 0 0.17050081 0.58443309409 0 -0.58168449499 -0.17128271923 0 
-0.58573295936 0.16883725031 0 -0.19 -0.58267949192 0 0.49 -0.58267949192 0 
-0.49050081 0.58443309409 0 0.58415322569 0.48921568047 0 -0.49 -0.58267949192 0 
0.53 -0.58267949192 0 0.58203286059 0.53119351335 0 -0.53 0.58267949192 0 
-0.58222913959 -0.53018403998 0 0.58202539473 0.28969699417 0 -0.29 0.58267949192 0 
-0.58451963751 -0.45057023735 0 -0.58267949192 -0.07 0 -0.29 -0.58267949192 0 
-0.03 -0.58267949192 0 0.39 -0.58267949192 0 0.58307204747 0.39068583015 0 
-0.39 0.58373814012 0 0.29 -0.58267949192 0 0.58208722445 -0.45065236781 0 
0.45042926572 0.58129593389 0 -0.58211115223 0.44955595746 0 -0.58432719917 -0.36932980655 0 
-0.58406793967 -0.26883049013 0 0.5820526686 -0.36901719046 0 0.37 0.58267949192 0 
-0.5823078615 0.36998422007 0 -0.39 -0.58267949192 0 -0.58211498987 0.271305057 0 
-0.53 -0.58267949192 0 0.58222913959 -0.53018403998 0 0.53 0.58373814012 0 
-0.58219774606 0.53090792334 0 0.58030324732 -0.28813008885 0 0.29050081 0.58443309409 0 
-0.58188605505 -0.56816348762 0 0.56922649731 -0.58312607391 0 0.58067979276 0.57009350437 0 
-0.57009384201 0.58146184644 0 0.54987108288 -0.58275392226 0 0.53997851381 -0.5653713889 0 
0.51999641897 -0.56536105136 0 0.52999582213 -0.54804088787 0 0.50999870685 -0.54803922237 0 
0.51999908816 -0.53071849415 0 0.4999996325 -0.53071817987 0 0.50999978678 -0.51339758273 0 
0.48999990321 -0.5133975155 0 0.49999994833 -0.49607698138 0 0.47999997526 -0.49607696583 0 
0.48999998726 -0.47875645082 0 0.46999999375 -0.47875644708 0 0.47999999684 -0.46143593722 0 
0.45999999843 -0.4614359363 0 0.46999999921 -0.44411542777 0 0.44999999961 -0.44411542755 0 
0.4599999998 -0.42679491936 0 0.4399999999 -0.4267949193 0 0.44999999995 -0.4094744112 0 
0.42999999998 -0.40947441118 0 0.43999999999 -0.3921539031 0 0.41999999999 -0.3921539031 0 
0.43 -0.37483339502 0 0.41 -0.37483339502 0 0.42 -0.35751288694 0 
0.4 -0.35751288694 0 0.41 -0.34019237886 0 0.39 -0.34019237886 0 
0.4 -0.32287187079 0 0.38 -0.32287187079 0 0.39 -0.30555136271 0 
0.37 -0.30555136271 0 0.38 -0.28823085464 0 0.36 -0.28823085464 0 
0.37 -0.27091034656 0 0.35 -0.27091034656 0 0.36 -0.25358983849 0 
0.34 -0.25358983849 0 0.35 -0.23626933041 0 0.33 -0.27091034656 0 
0.32 -0.25358983849 0 0.31 -0.27091034656 0 0.3 -0.25358983849 0 
0.29 -0.27091034656 0 0.28 -0.25358983849 0 0.27 -0.27091034656 0 
0.26 -0.25358983849 0 0.25 -0.27091034656 0 0.27 -0.23626933041 0 
0.24 -0.25358983849 0 0.23 -0.27091034656 0 0.22 -0.25358983849 0 
0.21 -0.27091034656 0 0.2 -0.25358983849 0 0.19 -0.27091034656 0 
0.18 -0.25358983849 0 0.17 -0.27091034656 0 0.19 -0.23626933041 0 
0.16 -0.25358983849 0 0.15 -0.27091034656 0 0.14 -0.25358983849 0 
0.13 -0.27091034656 0 0.12 -0.25358983849 0 0.11 -0.27091034656 0 
0.1 -0.25358983849 0 0.09 -0.27091034656 0 0.08 -0.25358983849 0 
0.07 -0.27091034656 0 0.06 -0.25358983849 0 0.05 -0.27091034656 0 
0.04 -0.25358983849 0 0.03 -0.27091034656 0 0.02 -0.25358983849 0 
0.01 -0.27091034656 0 -1.7474921972e-14 -0.25358983849 0 -0.01 -0.27091034656 0 
-0.02 -0.25358983849 0 -0.03 -0.27091034656 0 -0.04 -0.25358983849 0 
-0.05 -0.27091034656 0 -0.06 -0.25358983849 0 -0.07 -0.27091034656 0 
-0.08 -0.25358983849 0 -0.09 -0.27091034656 0 -0.1 -0.25358983849 0 
-0.11 -0.27091034656 0 -0.12 -0.25358983849 0 -0.13 -0.27091034656 0 
-0.14 -0.25358983849 0 -0.15 -0.27091034656 0 -0.16 -0.25358983849 0 
-0.17 -0.27091034656 0 -0.18 -0.25358983849 0 -0.19 -0.27091034656 0 
-0.2 -0.25358983849 0 -0.21 -0.27091034656 0 -0.22 -0.25358983849 0 
-0.21 -0.23626933041 0 -0.23 -0.23626933041 0 -0.22 -0.21894882233 0 
-0.23 -0.27091034656 0 -0.24 -0.21894882233 0 -0.23 -0.20162831426 0 
-0.25 -0.20162831426 0 -0.24 -0.18430780618 0 -0.26 -0.18430780618 0 
-0.25 -0.16698729811 0 -0.27 -0.16698729811 0 -0.26 -0.14966679003 0 
-0.27 -0.20162831426 0 -0.28 -0.14966679003 0 -0.27 -0.13234628196 0 
-0.29 -0.13234628196 0 -0.28 -0.11502577388 0 -0.3 -0.11502577388 0 
-0.29 -0.097705265805 0 0.22 -0.28823085464 0 0.1 -0.28823085464 0 
-0.1 -0.28823085464 0 -0.22 -0.28823085464 0 -0.24 -0.28823085464 0 
0.02 -0.28823085464 0 -0.31 -0.13234628196 0 -0.31 -0.097705265805 0 
-0.3 -0.080384757729 0 -0.28 -0.080384757729 0 -0.29 -0.063064249654 0 
-0.31 -0.063064249654 0 -0.3 -0.045743741578 0 -0.28 -0.045743741578 0 
-0.29 -0.028423233502 0 -0.27 -0.028423233502 0 -0.28 -0.011102725427 0 
-0.3 -0.011102725427 0 -0.29 0.0062177826491 0 -0.27 0.0062177826491 0 
-0.28 0.023538290725 0 -0.26 0.023538290725 0 -0.27 0.0408587988 0 
-0.25 0.0408587988 0 -0.26 0.058179306876 0 -0.24 0.058179306876 0 
-0.25 0.075499814952 0 -0.23 0.075499814952 0 -0.24 0.092820323028 0 
-0.22 0.092820323028 0 -0.23 0.1101408311 0 -0.21 0.1101408311 0 
-0.22 0.12746133918 0 -0.2 0.12746133918 0 -0.21 0.14478184725 0 
-0.19 0.14478184725 0 -0.2 0.16210235533 0 -0.18 0.16210235533 0 
-0.19 0.17942286341 0 -0.17 0.17942286341 0 -0.21 0.17942286341 0 
-0.2 0.19674337148 0 -0.22 0.19674337148 0 -0.21 0.21406387956 0 
-0.23 0.21406387956 0 -0.22 0.23138438763 0 -0.24 0.23138438763 0 
-0.23 0.24870489571 0 -0.21 0.24870489571 0 -0.25 0.24870489571 0 
-0.27 0.075499814952 0 -0.22 0.26602540378 0 -0.2 0.26602540378 0 
-0.21 0.28334591186 0 -0.19 0.28334591186 0 -0.31 0.0062177826491 0 
-0.23 -0.16698729811 0 0.11 -0.23626933041 0 -0.2 0.30066641994 0 
-0.18 0.30066641994 0 -0.23 -0.30555136271 0 -0.25 -0.30555136271 0 
0.39 -0.37483339502 0 -0.09 -0.23626933041 0 -0.19 0.31798692801 0 
[...]
CELL_DATA 8442
FIELD FieldData 1
flux 1 8442 double
4.3071086105e-07 0.00075029588983 0.0030884971834 0.081608152678 0.074078566227 3.3852299888e-07 0.016877818044 0.0053659405739 0.11625183334 
0.052482917909 0.00052086914321 0.00025951526157 0.018568494647 0.018760695708 9.0328634587e-09 0.00054172792076 8.613333086e-06 0.086109157056 
0.00011897009404 0.011557599732 0.026352917418 9.0880449579e-09 1.4215157699e-07 1.0111886017e-06 0.0010709253745 1.4611167018e-07 3.1698112521e-06 
0.00094971637243 0.00032137381758 0.065257762137 0.00025799085576 2.9858310084e-05 0.060318518676 0.059713937491 0.073421887907 0.030514226395 
0.030472245847 0.050072044274 0.0082643364141 0.0082163088388 0.00097662547032 3.4827164095e-09 1.7603368431e-05 0.1212878612 0.0030495306106 
0.0036139708435 0.0034077214961 2.1688322728e-08 2.2002117953e-08 0.00010163910268 0.0018846875433 0.00018899121346 6.8460858248e-08 6.9531413131e-08 
0.00010827195742 0.044144173334 5.7578618964e-05 0.042160514405 0.043057194389 0.042634814159 0.061304419439 3.6720642769e-10 0.09643953993 
0.034796391914 2.3133239661e-06 0.00047273455149 2.0328886131e-05 2.5007495006e-09 0.0015994283445 0.0092061625548 0.0085974754828 2.4315769242e-06 
0.0017991919996 0.0269474053 0.00089720553222 3.3177640122e-07 0.096800549562 0.11458676114 0.014148100783 0.014379466024 0.061918068454 
0.073511456449 3.8316346277e-07 0.00085141482249 0.00046978672444 0.004057838337 0.0063895969943 1.4667576285e-08 1.5062653864e-08 0.012446735998 
0.012507552266 0.0010945635457 0.10589654479 3.3627002826e-05 3.4651728778e-05 0.082004347873 0.053683935772 0.0072721421471 0.0072532832729 
0.00024676049528 2.5948659318e-10 0.00090367327898 0.0024140541271 0.0019587533847 7.0347767768e-06 0.0025024022102 0.00013561843519 0.080838445735 
3.6005346012e-08 3.622062384e-08 5.1803149621e-09 7.2114216585e-05 1.5311385509e-07 1.5983252093e-07 7.1811831985e-07 3.8643928499e-06 0.1131303022 
0.0081939637034 0.019829534906 0.020021287072 0.12659132992 0.0005215052037 0.11725555038 0.011010062652 0.011072630209 0.029708360343 
0.015816772974 0.015840240841 0.086556431838 0.05101186139 0.001490946429 0.0056776259771 1.4633107621e-09 0.00024190958214 0.042926163277 
0.00015387522883 8.5642165951e-07 1.7199356509e-05 1.7548009115e-05 0.00045137421685 0.043556866099 41.602028002 41.574276886 0.08463957062 
0.012893668743 0.012770668206 5.6703568693e-09 0.00050158217993 0.02371640396 0.0018827425616 0.12928164182 6.4980000359e-05 0.00011769354399 
7.1747089207e-08 7.5061091828e-08 1.1713407737e-07 1.4599153421e-07 0.071479139933 0.0053104593002 6.3061263939e-05 6.0785047447e-05 0.053966506688 
9.1963395926e-08 9.0965018017e-08 0.0016803756178 1.7344303466e-05 3.2641226483e-07 0.00056833908972 0.07488026528 0.095135962479 1.0417482074e-06 
0.0029497462826 0.10377073995 41.91398669 41.934217764 2.1173650528e-07 41.931098647 41.902902825 0.0079240736959 2.1128117945e-07 
8.9175070396e-05 0.021760893922 0.021658117398 1.1571782986e-09 0.083184744063 0.00072026504291 8.4101537417e-10 0.0002512469639 1.630071857e-06 
4.9585368609e-07 6.6406694266e-09 6.7074270407e-09 0.00013088182456 4.8105463765e-07 1.0604352955e-06 3.6706772167e-06 3.611145045e-05 0.00022711798586 
2.8327730798e-07 0.0033011127159 7.3104112306e-05 0.00019644756169 0.023859072725 0.0042900041388 0.003796751997 0.032187386569 0.025101475935 
0.050738543252 0.039986260531 0.018249014673 0.015299888116 0.051648891132 0.0094717771051 0.023447521608 0.01070718975 0.00083454651481 
0.045433672735 0.028175131682 1.5282539451e-06 0.011156914318 7.7728480512e-08 4.4671409093e-06 4.8839497808e-06 3.5062639499e-06 7.1899167384e-07 
0.00012505925414 0.0081378511049 2.4355740618 2.6083815094 2.4887547796 2.5859298835 2.3314487411 0.29867886391 2.5200108787 
7.1452447455e-05 0.0011110014119 0.027708012992 0.10305689555 0.12313207888 2.6048285769 2.5934872232 2.4921720158 2.4522933734 
2.4563381432 1.698358466 2.3304164517 0.013000763565 2.5453931853 0.00021635311612 2.3954463478 0.0020219117144 2.4026086892 
0.66323471153 0.00063560027122 0.51818261077 0.086313239571 1.2605827985 0.12174926403 0.00041690011129 3.500854898e-05 0.84449005555 
4.1139347494e-07 2.4757999749 2.3031874979 2.5761028682 0.38924395957 0.098427394397 2.4107483771 0.17315324298 2.3613670255 
1.0369089048 0.0025509997525 0.51110987848 2.2286238498 0.067728935181 2.3873173735 2.1806135459 0.00060728619579 3.7020715365e-08 
2.4157403991e-08 2.3802178347 0.003543500389 0.0045073412289 0.74248665896 2.3349038272 2.2344156743 0.00044689006403 1.6191697962 
1.070581851 0.409565857 0.938563871 2.3620113377 2.3942031076 0.007691866445 2.4797335423 0.39482261983 2.1640725871 
2.3876387158 -0.79363599796 -1.0727230677 8.7469626157e-08 2.3775156963 0.1812291641 0.25586346754 2.5593487071 2.3857816889 
1.1846913627 0.22692524188 1.0094835262 0.00080394693815 2.16320079 0.044145000325 1.2904806087 0.22333021356 -0.73287989153 
1.2267081505 2.2619238846 2.2909368628 2.3865732875 0.49379269945 0.51788685963 0.23711531598 2.0040152073 2.5959459132 
0.2918701611 1.8539733916 2.6271476089 2.3349230964 -0.31703562023 0.19406058696 -0.41133237842 2.1179548169 0.2242005577 
1.9085591107 1.316323873 0.40046722805 -0.47916703904 1.2026180697 -0.27500619986 -1.0102275828 0.74791674862 -0.32240496467 
0.32743003447 -0.96279989733 2.217608118 -0.86703406868 -1.1067157928 2.1987800659 2.5093548479 2.3236789518 1.5040235818e-08 
-0.74049918694 1.4582474239 0.17309984396 0.0025331096513 2.1892758499 2.5538567081 -0.75496297577 -0.83885584721 0.2931890088 
1.6155191933 -0.93517135178 1.7480558192 0.0021684850816 2.3030449296 1.0500310912 -0.46488843949 1.7152289481 0.10886643067 
1.4205141888 0.44606011961 0.17326095062 1.7079137853 2.5760733609 -0.37548812972 1.8440095984 2.4366420746 2.3313872742 
0.26427844605 1.6130351451 0.16080268261 0.00029478241226 0.74028156169 0.49037380832 0.24210783089 2.579475105 0.36159261763 
2.2658690174 1.5203121234 0.00063455126393 -0.53104071562 -0.37960383343 2.0071407203 0.40994189114 2.3873333423 0.00010114876936 
0.15191199239 1.9820267865 0.29901391428 0.13618689518 2.4106435443 2.0847701987 1.9742452161 0.00018908634089 2.3987759638 
0.0032688300125 0.00034814863944 2.331631482 0.20878333676 0.654315844 1.0971108748 -0.35791177092 0.58556205918 2.3390585591 
2.3669415943 0.1937277132 0.32650952563 0.23715942985 0.23545347243 1.9549542086 -0.42989459524 -0.85034388125 2.1034858549 
0.0014696356349 1.3925179539 1.9190425425 2.6362434569 -1.1127921125 2.560658783 0.25783696634 0.14710469249 0.10024263504 
1.7565748009 0.00026138721892 2.3677140201 0.21847597704 0.9739949258 1.8969163559 0.26076532054 0.00014093302491 0.16772437688 
0.12025169501 -0.64279423378 -0.33754714419 -0.95336760059 1.2271149434 2.3766668538e-05 2.2097713261 0.84480558408 2.5658545558 
0.2919939681 0.00048477023138 1.9491618853 2.3551180865 6.1176050906e-09 -0.87016815452 2.6471208829 2.2869477858 0.16632301362 
0.44580576315 -0.68332601874 2.2899267507 2.0559109141 -0.87711902287 -0.85178508165 0.2038129052 0.0067340359237 -0.8954611772 
-0.90305454393 2.3348805676 2.3462639683 0.018688378276 2.1485174308 0.055234170654 2.2275532717 1.4547692154 -0.58196753943 
-0.86249281392 2.2820925276 0.40362003551 0.00060404569674 0.072464885294 2.2595044919 2.1600152458 -0.96383712618 0.049712561056 
-0.19352391207 -1.083800081 0.47976282514 2.3147016595 -1.0361079354 -0.82814009507 9.4630766908e-05 -0.90832835046 0.00035693452158 
-0.96981140757 6.3007026336e-05 1.0069781192 -0.15668750948 -0.648159412 0.0061736076785 1.8618507819 -1.0369844041 0.20351023227 
5.8309304929e-08 1.6479043685 -0.73424911886 0.068072119469 -0.90859593419 -0.94931851986 2.636297821 0.76013949052 1.4835405805 
0.00077546434744 -1.0155185337 2.1996799328 2.6341899828 2.6030028404 -0.43335820437 -0.74534672859 0.0011631324058 0.16867883834 
1.0804463182 0.37613906779 1.3395936043 1.937213754 -0.91858411337 -0.88112828934 1.7289250852 0.00097706889435 2.1241058899 
0.0038992117443 -1.0985541183 0.29412842504 2.2655642313 -1.0811088234 1.971211478 2.3900011788 2.38745427 2.3312489906 
2.3753137511 1.6522739998 0.97365926079 -1.0685916695 2.3699247869 0.09903744348 1.3407831902 9.9124504569e-06 1.8968689391 
0.39774261091 1.4443298063 0.94880845935 2.4756656331 0.12444715483 0.030967118447 0.010319843632 0.11148112653 -1.0909505832 
0.52662883102 -0.8146128983 0.18871875301 2.3982117385 -0.38628322767 0.00034718837288 -0.45645142275 0.21368679462 2.5659031106 
0.00019630938415 2.4047336531 1.35293818 1.9153994547 -0.06171512244 -0.40492059584 -0.41131398599 0.00012499333802 2.5198231126 
0.21028759437 1.6380086412 -0.70277385921 0.00013397641584 -1.0822045603 0.28019402979 3.5347382227e-09 0.32693601005 2.3871059972 
0.20857743897 0.903793455 -1.1074079779 -0.85042255688 2.423802662 1.6658843506 0.18345603404 -1.0645647262 0.88293010256 
1.5611046938 -1.0578610164 1.0857031611 -0.8089401292 2.0972217276 -0.78330960153 1.6919150563e-05 0.030444229733 0.016874961189 
2.3708552815 -0.37835287739 2.3016643022 2.975872554e-07 9.7454516995e-05 0.58540980112 0.036147566382 0.83918544017 1.7113544185 
0.3069266838 0.33285329462 -0.64440616327 0.14121176912 0.024600175715 1.927067158 2.4560146575 2.3943665647 2.37804233 
2.553555668 2.5833550675 2.4919895745 2.5452366108 0.0006352044693 0.00023456381634 -0.77483267252 1.4877253275 2.235140168 
2.074931849 1.0338260714 0.5769762597 2.5683403404 0.011461097363 -0.71664246507 3.2227614319e-05 -0.8261529815 9.6018713672e-05 
-0.49678144036 -0.55161590492 0.13455109169 -1.0969930048 0.061688656491 0.19733708056 1.7151637654 -0.88390873552 1.3879145074 
2.4183331111 0.085334201552 0.15570153954 1.6053733334 -0.90446070903 0.52150495109 2.3867990194 -1.0977679728 0.0011752618262 
0.043392352815 2.1887664522 0.0011421606799 -0.87232886012 2.3228975478 0.52372020116 0.99026663288 0.00044712644597 2.5286704436 
0.066733324334 2.1312648549 2.5619150648 0.035065384446 1.8294653929 2.5593323951 0.1394101871 0.019447328257 -1.0602871868 
0.017263518799 2.2820447476 1.9436058224 -0.62535132203 0.29997839934 0.14551362536 9.4913253419e-07 2.0052820719 0.062358181706 
0.11099362333 0.16692941715 0.69796650653 0.43957991978 0.062123330886 2.2825008102 0.00035683598839 2.2089160627 2.5917358829 
0.20813156169 -0.70661608055 0.00018915276689 0.64794483086 -0.73331825946 -0.0053928184041 1.7116362406 0.30436567112 0.077439771322 
2.6476285293 0.10915513305 -0.54987829896 1.9193637516 1.4555867203 0.2379127102 0.99382741628 1.8669049175 2.5076221504 
2.6292408367 2.1356108738 0.00052730759019 2.5234444873 1.4553438485 2.620780961 -0.079531015486 0.0001455016244 0.63465318161 
2.3581729239 -0.7217703701 0.075589131275 2.4023169511 0.00025373292028 0.28114005769 1.7559735525 -0.95611704957 -0.83747879998 
1.3318555877 2.2264283748 0.0065141769832 0.24294824562 1.2728159e-08 1.322575127e-09 1.7233520142 0.11148055818 0.3831077052 
1.4565743274 -0.76933022944 -0.55095186151 0.60946676296 2.6243820199 -0.85533411932 1.5399779075 2.5418172962 -0.77674385959 
0.0061832165128 1.6818532829 -1.0671867775 2.1248049967 2.4931896152 2.2285183909 -0.46035701328 0.0020863675492 2.6176540984 
-1.0811955116 0.018163722292 -1.0890365622 1.1650910858e-08 -0.75967272303 0.60144541319 0.0014203199956 1.2035000174 0.00026072866412 
1.2395233296 -1.0805080228 1.0566809682 0.44232152086 -0.44305986191 0.81370361119 2.3714070964 0.0303631798 0.4928355176 
-0.45431181007 0.21072632853 0.087463615488 0.0026620328905 1.5131397472 1.857706819 1.3491318754 0.22956309126 0.048539981245 
2.173730661 0.34400994036 0.1359899679 0.010581428572 2.396699629 -1.0480552551 2.1205461583 1.4550805907 1.2329917186 
0.00021644961895 -0.87245618019 0.19249545183 1.5277002498 2.0358326745 0.91096317527 2.5005513921 -1.053603375 1.2267869561 
0.001256545894 2.121362828e-05 -0.19971386234 2.1277938809 1.3140952748 4.4183337236e-05 1.1178109875 1.2952532647 1.6021822258 
-1.0133349125 0.68056074712 2.535586628e-06 1.3669847217 1.3880169771 0.66743489806 0.030379734625 1.6053344147 0.25450073981 
0.0063051009549 1.1587497761e-05 3.4191756993e-05 -0.013699021252 0.00085354601677 0.038739843361 1.0877102534 -0.49247774022 -0.056223507652 
0.13602149532 2.1237473268 2.1035607213 2.6270917591 -0.57795806859 3.534847611e-06 0.19466919064 2.4024210301 4.6009776774e-06 
0.0032490804962 -0.68340893401 2.5008165084 0.7263267093 0.93084528635 8.958314549e-09 -0.8803811635 0.6979079194 0.43948906542 
0.7612723982 0.011190258157 2.3954730645 2.0845807882 1.757699077 0.34401718659 0.11167083091 0.0037288261651 0.13003275234 
0.2469973158 0.020780289318 0.048992822403 2.0882742737 0.0067107759597 1.3266322849 0.00036841729582 0.0038272690941 0.0035276309043 
1.2713385744 1.8195992878 1.1590901731e-05 0.2154116776 0.32779656424 2.4821966658 2.3354889964 -0.56756010193 1.7478150521 
1.5383097282 2.630060714 0.57715695952 1.8572883826 2.1745268355 2.2082795555 1.1056385557 1.8474134786 0.10556377199 
-0.73686327413 0.00041707824035 -0.20556732931 0.74515206023 -0.85166107938 1.7455823011 2.5326658959 2.4072108387 0.00018039309559 
0.0018359860015 2.2982733547 0.83198569344 0.20234490665 0.027170569454 0.0022607224298 -0.97313498033 9.6038506992e-05 1.9489463763 
0.0256969429 0.042925402988 1.1083343207e-08 -1.0400232603 0.58465435195 2.0770404125e-07 0.01301361943 -0.96974008963 0.14370350304 
1.6089190757 -0.75567172597 1.9442658777 4.8804030163e-05 4.7085731479e-07 4.8807005045e-05 1.4542051372 0.00020309985116 2.3952789912 
-0.70642649896 2.5528533582 1.550720124 1.7061458734 -0.88963843139 -0.21732911442 1.8670688439 0.89189480782 0.66324708917 
1.0969867558 -0.19809675905 1.7525868399 0.00013232615511 0.28052327278 -1.0312118972 1.4018659645e-05 2.6240355551 0.14271393774 
9.9075328094e-06 0.16823402456 0.0027143341763 0.00027604711574 1.8079838025 1.0236390501 2.1252428236 1.6247484007 0.2523589394 
0.016014727515 0.067771575928 0.026830869508 0.018608987312 0.17131806678 0.69725809672 0.16108047285 0.046937251143 -1.0095446581 
2.367222195 0.3849047343 0.01880895585 0.22961670263 0.0017857337883 1.0169542158 7.711798234e-05 2.5681632057 0.21551745089 
0.80718177712 -1.0188220779 0.42374866615 1.4204720305 0.74989833136 0.064299428579 -0.54818165977 0.0057138641821 0.28828730844 
1.88401368 0.00075054181924 -0.53947377648 2.1019655508 -0.34624449589 1.9392803833 -0.57320311058 -0.93308589047 0.25805478412 
0.044060864724 0.20390040588 -1.0920393253 -0.99144158537 0.50417734775 0.096642664966 -0.83684625915 0.55849720164 0.10141539276 
1.4270682761 1.0149683046e-05 1.7806012313 2.6138884778 0.25151027497 0.16832388749 0.58986991742 1.2411458159 6.2044421847e-05 
0.028098892252 -0.51337563868 2.4379525496 2.3902456251 0.0055180930603 0.23652194127 2.3031678388 0.033422869366 -0.34602215828 
4.5986225033e-06 1.5929158039 0.85477521689 -1.0199315926 0.4241146216 2.377129524e-05 1.4769648114 2.2097288212 1.8720494134 
0.51819874413 0.12180275079 1.2776697606 0.094265076588 -0.060194206894 2.0038643449 -0.96517325003 0.3348661867 0.7405736541 
0.4196974029 1.4682888829 -0.42161672785 0.71076011314 0.00011152076841 -0.84877679036 -1.0972431764 1.9573371846 0.42890806651 
0.32747126775 1.4848032729 2.5567797994 2.3587320225 -0.79364830286 2.1304427938e-06 -1.0138640078 1.6694656755 0.1283080863 
0.22950482145 0.48964640894 2.0552867282 -1.0744433617 0.26964258871 0.29003807934 0.018607027164 2.4885607472 3.3202410537e-05 
0.0021505521952 0.84575957758 0.00016756058213 0.15470858777 1.4078761379 0.19062733561 0.00036052398561 0.0060854708601 0.010579758493 
0.0037127171712 1.7654152601e-05 1.4025509832 0.93476990115 0.41116028612 1.8159915794 2.5128379412 2.6461658232 2.3836995601 
2.6058675775 1.8380411179 0.014322910934 1.5092702872 -1.0470387464 4.248371228e-05 0.045901375805 -0.170014047 2.2022672712 
-1.0507953065 1.7409722782e-08 1.4289839264e-08 0.038065247081 1.836697501 -0.78199954959 1.4542813447 -0.52167586065 2.0442209509 
0.41087153052 2.3383341282 -1.1069538236 1.6250385475 -0.38601140893 1.0635849636 -1.008244499 -0.27041113672 1.1080319007 
-0.89260004218 0.91202470613 -0.24986880225 0.32743882939 1.5923574136 -1.1030754293 0.5376464951 2.5781965595 0.01902357169 
-1.0754380055 2.3941520974 0.25733191249 -0.95745131455 1.2752708512 0.12177479337 1.3560357925 -0.51241143117 0.22111537478 
2.3288205451 0.33999771671 0.016028719562 2.0847397883 1.1254235767e-09 0.61707814165 1.6308967871 0.60139896843 0.2907830697 
0.41414771471 0.58066891536 -0.98428281393 0.87196462872 1.1815897797 2.2173106651 0.059216446693 0.11505606795 0.16144089474 
0.00064224598212 0.17400514375 0.13550654796 0.0023427071888 -0.87250517278 1.6982466376 0.0013220033566 -1.0546267995 1.8887068451 
1.5778892424 -0.50615448035 2.5600460826 1.2047469973 2.1273515137e-05 1.6227231709e-05 0.11326271168 1.8218523092e-05 2.374739237 
1.4531684819 0.017713464105 0.35590177038 2.4123388492 0.36081725853 0.18885888919 -0.93416219397 -0.80914631901 0.0018307864779 
-0.39163631704 -0.45044670422 0.023380758715 -0.88243644972 -0.56156761892 2.2457405911e-05 -0.2447021157 0.01602495308 -0.30176267949 
1.7237693089 2.1370198332 0.0020503289998 -0.47627245151 0.21976864578 0.67582052817 0.40576447478 3.6455680327e-08 2.3905750678 
1.6079398646 0.34429470324 1.0585223381 0.003283972351 -0.95427215488 1.3733502827 -0.94643563591 2.2307990098 -0.92152710107 
0.81780524871 0.53833186176 1.0432812818 1.1130435265 2.0882661717 1.8716372454 1.1178945205 -0.54818148815 2.3853138374 
2.5324259309 2.5181182072 2.2691618783 0.091863502243 -0.711631452 0.0038380644902 -0.62562373553 0.32149778223 0.021932669565 
0.017881522186 -0.59079535743 -0.78541875646 1.9566530605 2.2267886289 0.31582886672 4.7174542834e-05 2.3231353346 5.4679345364e-06 
2.6080665513 1.6998406577 0.57232204612 2.3942972644 2.1434079594 -0.90284171057 1.5204683828 -0.72270634142 0.78872128918 
0.094860878701 0.055510001556 0.024791921585 1.2049348096 1.7655476316 2.5586442183 1.2905652087 0.15561798836 0.072699129035 
0.0010426261359 0.44080705721 2.3161842859 1.33945397 1.9120823701 1.2875542421 1.0777375304e-05 0.00077970383256 0.031148699607 
2.4590675776 1.087348313 1.3486854058 3.1566297384e-08 -0.80181434392 2.0845159461 0.11704649366 0.0043057927459 1.8839992731 
1.5119255321 0.007859903826 2.4334836638 0.50384354977 -0.51527806628 -1.0639401943 0.0017190813838 0.0017283421398 1.8042853038e-07 
0.12775422426 2.3758745809 2.3341580486 2.4379888162 0.04213101604 -0.80470025626 -0.76762828883 0.079267149723 0.031849575347 
0.18616396888 0.11731650527 0.16653188397 -1.0173084204 -0.56004893136 0.0015181289223 2.4339589213 0.0096795000567 -0.76112172189 
0.12610597345 2.2645793544 0.060946115895 -0.96172555434 2.6256602555 0.00083782603176 2.1462837447 2.3021002989 0.14197340208 
2.0006720481 1.9139582495 0.26999724001 0.57051151468 0.94034497255 0.11132630529 1.9832063971 0.33729677317 0.035360698909 
-0.20073587127 1.0662780522 -0.72677765711 2.4458280583 1.5302488364 2.3493776522 0.049549228319 -0.88879700007 0.031299369402 
4.133143106e-05 2.6298745088 0.49899355245 0.00012512226156 1.8783795547e-05 2.572887611e-05 1.6514523403e-05 0.0094380897763 0.083577091224 
-0.87157090514 1.3082256777e-05 0.38012004588 0.018794907478 0.27965860258 0.006558513398 0.0014313260878 5.3545486422e-08 0.0015360634289 
1.8316763695 -0.95759142046 0.0085281796 -0.48860216459 1.6952661444 2.3583672714 0.048253727792 -0.74598153056 -0.75968295763 
0.00077234149974 0.0025743635844 0.00080380244936 2.0213660282 1.1463957584 1.8140274341 0.080654960084 0.94034036927 0.23015907949 
0.0025307800465 0.018406412453 0.0051645643193 0.019035609537 2.4564190211 -0.85411841551 -0.15216320901 0.083186332726 1.5240563512e-07 
-0.96038042269 1.4586319033 2.5415976928 -0.4760077775 0.0027780910251 1.649503087 0.022173343165 0.56357048362 0.24135541079 
2.3781328306 1.0302439694e-05 2.2126419178e-06 -1.0331210249 0.056112607609 0.057274358928 0.10643787691 -0.84777285881 2.3980464495 