# vtk DataFile Version 4.2
vtk output
ASCII
DATASET UNSTRUCTURED_GRID
POINTS 4342 double
-0.6 -0.6 0 0.6 -0.6 0 0.6 0.6 0 
-0.6 0.6 0 0 0 0 -0.58 -0.6 0 
-0.56 -0.6 0 -0.54 -0.6 0 -0.52 -0.6 0 
-0.5 -0.6 0 -0.48 -0.6 0 -0.46 -0.6 0 
-0.44 -0.6 0 -0.42 -0.6 0 -0.4 -0.6 0 
-0.38 -0.6 0 -0.36 -0.6 0 -0.34 -0.6 0 
-0.32 -0.6 0 -0.3 -0.6 0 -0.28 -0.6 0 
-0.26 -0.6 0 -0.24 -0.6 0 -0.22 -0.6 0 
-0.2 -0.6 0 -0.18 -0.6 0 -0.16 -0.6 0 
-0.14 -0.6 0 -0.12 -0.6 0 -0.1 -0.6 0 
-0.08 -0.6 0 -0.06 -0.6 0 -0.04 -0.6 0 
-0.02 -0.6 0 -8.881784197e-16 -0.6 0 0.02 -0.6 0 
0.04 -0.6 0 0.06 -0.6 0 0.08 -0.6 0 
0.1 -0.6 0 0.12 -0.6 0 0.14 -0.6 0 
0.16 -0.6 0 0.18 -0.6 0 0.2 -0.6 0 
0.22 -0.6 0 0.24 -0.6 0 0.26 -0.6 0 
0.28 -0.6 0 0.3 -0.6 0 0.32 -0.6 0 
0.34 -0.6 0 0.36 -0.6 0 0.38 -0.6 0 
0.4 -0.6 0 0.42 -0.6 0 0.44 -0.6 0 
0.46 -0.6 0 0.48 -0.6 0 0.5 -0.6 0 
0.52 -0.6 0 0.54 -0.6 0 0.56 -0.6 0 
0.58 -0.6 0 0.6 -0.58 0 0.6 -0.56 0 
0.6 -0.54 0 0.6 -0.52 0 0.6 -0.5 0 
0.6 -0.48 0 0.6 -0.46 0 0.6 -0.44 0 
0.6 -0.42 0 0.6 -0.4 0 0.6 -0.38 0 
0.6 -0.36 0 0.6 -0.34 0 0.6 -0.32 0 
0.6 -0.3 0 0.6 -0.28 0 0.6 -0.26 0 
0.6 -0.24 0 0.6 -0.22 0 0.6 -0.2 0 
0.6 -0.18 0 0.6 -0.16 0 0.6 -0.14 0 
0.6 -0.12 0 0.6 -0.1 0 0.6 -0.08 0 
0.6 -0.06 0 0.6 -0.04 0 0.6 -0.02 0 
0.6 -8.881784197e-16 0 0.6 0.02 0 0.6 0.04 0 
0.6 0.06 0 0.6 0.08 0 0.6 0.1 0 
0.6 0.12 0 0.6 0.14 0 0.6 0.16 0 
0.6 0.18 0 0.6 0.2 0 0.6 0.22 0 
0.6 0.24 0 0.6 0.26 0 0.6 0.28 0 
0.6 0.3 0 0.6 0.32 0 0.6 0.34 0 
0.6 0.36 0 0.6 0.38 0 0.6 0.4 0 
0.6 0.42 0 0.6 0.44 0 0.6 0.46 0 
0.6 0.48 0 0.6 0.5 0 0.6 0.52 0 
0.6 0.54 0 0.6 0.56 0 0.6 0.58 0 
0.58 0.6 0 0.56 0.6 0 0.54 0.6 0 
0.52 0.6 0 0.5 0.6 0 0.48 0.6 0 
0.46 0.6 0 0.44 0.6 0 0.42 0.6 0 
0.4 0.6 0 0.38 0.6 0 0.36 0.6 0 
0.34 0.6 0 0.32 0.6 0 0.3 0.6 0 
0.28 0.6 0 0.26 0.6 0 0.24 0.6 0 
0.22 0.6 0 0.2 0.6 0 0.18 0.6 0 
0.16 0.6 0 0.14 0.6 0 0.12 0.6 0 
0.1 0.6 0 0.08 0.6 0 0.06 0.6 0 
0.04 0.6 0 0.02 0.6 0 8.881784197e-16 0.6 0 
-0.02 0.6 0 -0.04 0.6 0 -0.06 0.6 0 
-0.08 0.6 0 -0.1 0.6 0 -0.12 0.6 0 
-0.14 0.6 0 -0.16 0.6 0 -0.18 0.6 0 
-0.2 0.6 0 -0.22 0.6 0 -0.24 0.6 0 
-0.26 0.6 0 -0.28 0.6 0 -0.3 0.6 0 
-0.32 0.6 0 -0.34 0.6 0 -0.36 0.6 0 
-0.38 0.6 0 -0.4 0.6 0 -0.42 0.6 0 
-0.44 0.6 0 -0.46 0.6 0 -0.48 0.6 0 
-0.5 0.6 0 -0.52 0.6 0 -0.54 0.6 0 
-0.56 0.6 0 -0.58 0.6 0 -0.6 0.58 0 
-0.6 0.56 0 -0.6 0.54 0 -0.6 0.52 0 
-0.6 0.5 0 -0.6 0.48 0 -0.6 0.46 0 
-0.6 0.44 0 -0.6 0.42 0 -0.6 0.4 0 
-0.6 0.38 0 -0.6 0.36 0 -0.6 0.34 0 
-0.6 0.32 0 -0.6 0.3 0 -0.6 0.28 0 
-0.6 0.26 0 -0.6 0.24 0 -0.6 0.22 0 
-0.6 0.2 0 -0.6 0.18 0 -0.6 0.16 0 
-0.6 0.14 0 -0.6 0.12 0 -0.6 0.1 0 
-0.6 0.08 0 -0.6 0.06 0 -0.6 0.04 0 
-0.6 0.02 0 -0.6 8.881784197e-16 0 -0.6 -0.02 0 
-0.6 -0.04 0 -0.6 -0.06 0 -0.6 -0.08 0 
-0.6 -0.1 0 -0.6 -0.12 0 -0.6 -0.14 0 
-0.6 -0.16 0 -0.6 -0.18 0 -0.6 -0.2 0 
-0.6 -0.22 0 -0.6 -0.24 0 -0.6 -0.26 0 
-0.6 -0.28 0 -0.6 -0.3 0 -0.6 -0.32 0 
-0.6 -0.34 0 -0.6 -0.36 0 -0.6 -0.38 0 
-0.6 -0.4 0 -0.6 -0.42 0 -0.6 -0.44 0 
-0.6 -0.46 0 -0.6 -0.48 0 -0.6 -0.5 0 
-0.6 -0.52 0 -0.6 -0.54 0 -0.6 -0.56 0 
-0.6 -0.58 0 0.25 -0.58267949192 0 -0.25 -0.58267949192 0 
-0.24969338163 0.58271630631 0 0.58313820224 0.25089999788 0 -0.58073798855 0.23055415423 0 
0.23 0.58267949192 0 0.5822727489 -0.23023532651 0 -0.58232885758 -0.22986293355 0 
-0.13 -0.58267949192 0 0.58091085312 0.12866705289 0 -0.13050081 0.58443309409 0 
0.13 -0.58267949192 0 0.11 0.58267949192 0 0.58128887437 -0.11185352307 0 
-0.58641004823 0.11046978504 0 -0.58097603768 -0.11235367818 0 -0.01 0.5841811861 0 
0.01 -0.58267949192 0 0.58217507245 0.011050809949 0 -0.58206506685 -0.010494327869 0 
0.58255589861 -0.33012459525 0 -0.58098267687 0.33246863147 0 0.33 0.58267949192 0 
-0.58090018381 -0.32734039494 0 0.35 -0.58267949192 0 0.58210978525 0.34851718814 0 
-0.34984356206 0.58269328777 0 -0.35 -0.58267949192 0 -0.58404031657 -0.41125547479 0 
0.58404031657 -0.41125547479 0 0.41 0.58267949192 0 -0.58127371569 0.40748932397 0 
0.43 -0.58267949192 0 0.58287041801 0.42966930632 0 -0.43030661837 0.58271630631 0 
-0.43 -0.58267949192 0 0.49 0.58267949192 0 0.58119455181 -0.49272606834 0 
-0.58196591894 0.48785347999 0 -0.58132747275 -0.49216380446 0 0.58099079541 0.19297246443 0 
-0.18926154554 0.58413656679 0 0.05 0.58267949192 0 0.19 -0.58267949192 0 
-0.07 -0.58267949192 0 0.58212565717 -0.051217328366 0 -0.07 0.58267949192 0 
0.58245912871 0.070013739955 0 0.07 -0.58267949192 0 0.58168449499 -0.17128271923 0 
-0.58574378526 0.05125913651 0 0.17050081 0.58443309409 0 -0.58168449499 -0.17128271923 0 
-0.58573295936 0.16883725031 0 -0.19 -0.58267949192 0 0.49 -0.58267949192 0 
-0.49050081 0.58443309409 0 0.58415322569 0.48921568047 0 -0.49 -0.58267949192 0 
0.53 -0.58267949192 0 0.58203286059 0.53119351335 0 -0.53 0.58267949192 0 
-0.58222913959 -0.53018403998 0 0.58202539473 0.28969699417 0 -0.29 0.58267949192 0 
-0.58451963751 -0.45057023735 0 -0.58267949192 -0.07 0 -0.29 -0.58267949192 0 
-0.03 -0.58267949192 0 0.39 -0.58267949192 0 0.58307204747 0.39068583015 0 
-0.39 0.58373814012 0 0.29 -0.58267949192 0 0.58208722445 -0.45065236781 0 
0.45042926572 0.58129593389 0 -0.58211115223 0.44955595746 0 -0.58432719917 -0.36932980655 0 
-0.58406793967 -0.26883049013 0 0.5820526686 -0.36901719046 0 0.37 0.58267949192 0 
-0.5823078615 0.36998422007 0 -0.39 -0.58267949192 0 -0.58211498987 0.271305057 0 
-0.53 -0.58267949192 0 0.58222913959 -0.53018403998 0 0.53 0.58373814012 0 
-0.58219774606 0.53090792334 0 0.58030324732 -0.28813008885 0 0.29050081 0.58443309409 0 
-0.58188605505 -0.56816348762 0 0.56922649731 -0.58312607391 0 0.58067979276 0.57009350437 0 
-0.57009384201 0.58146184644 0 0.54987108288 -0.58275392226 0 0.53997851381 -0.5653713889 0 
0.51999641897 -0.56536105136 0 0.52999582213 -0.54804088787 0 0.50999870685 -0.54803922237 0 
0.51999908816 -0.53071849415 0 0.4999996325 -0.53071817987 0 0.50999978678 -0.51339758273 0 
0.48999990321 -0.5133975155 0 0.49999994833 -0.49607698138 0 0.47999997526 -0.49607696583 0 
0.48999998726 -0.47875645082 0 0.46999999375 -0.47875644708 0 0.47999999684 -0.46143593722 0 
0.45999999843 -0.4614359363 0 0.46999999921 -0.44411542777 0 0.44999999961 -0.44411542755 0 
0.4599999998 -0.42679491936 0 0.4399999999 -0.4267949193 0 0.44999999995 -0.4094744112 0 
0.42999999998 -0.40947441118 0 0.43999999999 -0.3921539031 0 0.41999999999 -0.3921539031 0 
0.43 -0.37483339502 0 0.41 -0.37483339502 0 0.42 -0.35751288694 0 
0.4 -0.35751288694 0 0.41 -0.34019237886 0 0.39 -0.34019237886 0 
0.4 -0.32287187079 0 0.38 -0.32287187079 0 0.39 -0.30555136271 0 
0.37 -0.30555136271 0 0.38 -0.28823085464 0 0.36 -0.28823085464 0 
0.37 -0.27091034656 0 0.35 -0.27091034656 0 0.36 -0.25358983849 0 
0.34 -0.25358983849 0 0.35 -0.23626933041 0 0.33 -0.27091034656 0 
0.32 -0.25358983849 0 0.31 -0.27091034656 0 0.3 -0.25358983849 0 
0.29 -0.27091034656 0 0.28 -0.25358983849 0 0.27 -0.27091034656 0 
0.26 -0.25358983849 0 0.25 -0.27091034656 0 0.27 -0.23626933041 0 
0.24 -0.25358983849 0 0.23 -0.27091034656 0 0.22 -0.25358983849 0 
0.21 -0.27091034656 0 0.2 -0.25358983849 0 0.19 -0.27091034656 0 
0.18 -0.25358983849 0 0.17 -0.27091034656 0 0.19 -0.23626933041 0 
0.16 -0.25358983849 0 0.15 -0.27091034656 0 0.14 -0.25358983849 0 
0.13 -0.27091034656 0 0.12 -0.25358983849 0 0.11 -0.27091034656 0 
0.1 -0.25358983849 0 0.09 -0.27091034656 0 0.08 -0.25358983849 0 
0.07 -0.27091034656 0 0.06 -0.25358983849 0 0.05 -0.27091034656 0 
0.04 -0.25358983849 0 0.03 -0.27091034656 0 0.02 -0.25358983849 0 
0.01 -0.27091034656 0 -1.7474921972e-14 -0.25358983849 0 -0.01 -0.27091034656 0 
-0.02 -0.25358983849 0 -0.03 -0.27091034656 0 -0.04 -0.25358983849 0 
-0.05 -0.27091034656 0 -0.06 -0.25358983849 0 -0.07 -0.27091034656 0 
-0.08 -0.25358983849 0 -0.09 -0.27091034656 0 -0.1 -0.25358983849 0 
-0.11 -0.27091034656 0 -0.12 -0.25358983849 0 -0.13 -0.27091034656 0 
-0.14 -0.25358983849 0 -0.15 -0.27091034656 0 -0.16 -0.25358983849 0 
-0.17 -0.27091034656 0 -0.18 -0.25358983849 0 -0.19 -0.27091034656 0 
-0.2 -0.25358983849 0 -0.21 -0.27091034656 0 -0.22 -0.25358983849 0 
-0.21 -0.23626933041 0 -0.23 -0.23626933041 0 -0.22 -0.21894882233 0 
-0.23 -0.27091034656 0 -0.24 -0.21894882233 0 -0.23 -0.20162831426 0 
-0.25 -0.20162831426 0 -0.24 -0.18430780618 0 -0.26 -0.18430780618 0 
-0.25 -0.16698729811 0 -0.27 -0.16698729811 0 -0.26 -0.14966679003 0 
-0.27 -0.20162831426 0 -0.28 -0.14966679003 0 -0.27 -0.13234628196 0 
-0.29 -0.13234628196 0 -0.28 -0.11502577388 0 -0.3 -0.11502577388 0 
-0.29 -0.097705265805 0 0.22 -0.28823085464 0 0.1 -0.28823085464 0 
-0.1 -0.28823085464 0 -0.22 -0.28823085464 0 -0.24 -0.28823085464 0 
0.02 -0.28823085464 0 -0.31 -0.13234628196 0 -0.31 -0.097705265805 0 
-0.3 -0.080384757729 0 -0.28 -0.080384757729 0 -0.29 -0.063064249654 0 
-0.31 -0.063064249654 0 -0.3 -0.045743741578 0 -0.28 -0.045743741578 0 
-0.29 -0.028423233502 0 -0.27 -0.028423233502 0 -0.28 -0.011102725427 0 
-0.3 -0.011102725427 0 -0.29 0.0062177826491 0 -0.27 0.0062177826491 0 
-0.28 0.023538290725 0 -0.26 0.023538290725 0 -0.27 0.0408587988 0 
-0.25 0.0408587988 0 -0.26 0.058179306876 0 -0.24 0.058179306876 0 
-0.25 0.075499814952 0 -0.23 0.075499814952 0 -0.24 0.092820323028 0 
-0.22 0.092820323028 0 -0.23 0.1101408311 0 -0.21 0.1101408311 0 
-0.22 0.12746133918 0 -0.2 0.12746133918 0 -0.21 0.14478184725 0 
-0.19 0.14478184725 0 -0.2 0.16210235533 0 -0.18 0.16210235533 0 
-0.19 0.17942286341 0 -0.17 0.17942286341 0 -0.21 0.17942286341 0 
-0.2 0.19674337148 0 -0.22 0.19674337148 0 -0.21 0.21406387956 0 
-0.23 0.21406387956 0 -0.22 0.23138438763 0 -0.24 0.23138438763 0 
-0.23 0.24870489571 0 -0.21 0.24870489571 0 -0.25 0.24870489571 0 
-0.27 0.075499814952 0 -0.22 0.26602540378 0 -0.2 0.26602540378 0 
-0.21 0.28334591186 0 -0.19 0.28334591186 0 -0.31 0.0062177826491 0 
-0.23 -0.16698729811 0 0.11 -0.23626933041 0 -0.2 0.30066641994 0 
-0.18 0.30066641994 0 -0.23 -0.30555136271 0 -0.25 -0.30555136271 0 
0.39 -0.37483339502 0 -0.09 -0.23626933041 0 -0.19 0.31798692801 0 
[...]
CELL_DATA 8442
FIELD FieldData 1
radiation%20flux%20density 1 8442 double
0 0 0 0 0 0 0 0 0 
0 0 0 0 0 0 0 0 0 
0 0 0 0 0 0 0 0 0 
0 0 0 0 0 0 0 0 0 
0 0 0 0 0 0 0 0 0 
0 0 0 0 0 0 0 0 0 
0 0 0 0 0 0 0 2.4165528124e-227 0 
3.9868607802e-118 0 0 0 0 1.2040384443e-138 0 0 0 
0 4.1967095216e-120 0 0 0 0 0 0 0 
0 0 0 0 0 0 0 0 7.5231823369e-125 
7.5231823368e-125 0 0 0 0 0 0 0 0 
0 0 0 0 0 0 0 0 0 
0 0 0 0 0 0 0 0 0 
0 0 0 0 0 0 0 0 0 
0 0 0 0 0 0 0 0 0 
0 0 0 0 0 0 112.56753971 112.56393147 0 
0 0 0 0 0 0 0 0 0 
0 0 0 0 0 0 0 0 0 
0 0 0 0 0 0 0 0 0 
0 0 112.76153568 112.77353558 0 112.84512442 112.83872983 0 0 
0 0 0 0 0 0 0 0 0 
0 0 0 0 0 0 0 0 0 
0 0 0 0 0 0 0 0 0 
0 0 0 0 0 0 0 0 0 
0 0 0 0 0 0 0 0 0 
0 0 0 0 0 0 0 0 0 
0 0 0 0 0 0 0 0 0 
0 0 0 0 0 0 0 0 0 
0 0 0 0 0 0 0 0 0 
0 0 0 0 0 0 0 0 0 
0 0 0 0 0 0 0 0 0 
0 0 0 0 0 0 0 0 0 
0 0 0 0 0 0 0 0 0 
0 11.226649387 15.464090379 0 0 0 0.5406209969 0 0 
0 0 0 0 0 0 0 0 25.33312276 
0 0 0 0 0 0 0 0 0 
0 0 0 0 17.908176941 0 21.310994908 0 0 
0 0 0 22.170114537 0 17.289468803 12.310009696 0 9.3573409278 
0 26.387711557 0 26.532004164 20.798496311 0 0 0 0 
24.767121346 0 0 0 0 0 7.4286631321 23.378322788 0 
0 26.368484528 0 0 0 0.012905586605 3.6275668063 0 0 
0 0 0 0 0 2.7798127152 0 0 0 
0 0 0 0 0.1295495102 0 0 0 0 
0 0 0 4.6201916253 2.5653813566 0 0 0 0 
0 0 0 0.9246724806 0 0 0 0 0 
1.4297650185 0 0 0 0 0 24.017828178 0 0 
0 23.301224402 0.43775703199 0 0 0 19.647801048 7.9066198326 0 
0 0 0 0 19.896790163 0 0 0 0 
0 0 0 0 0.18798648837 0 0 0 0 
0 15.153100662 12.339943604 26.301436913 0 0 0 0 0 
0 0 0 0 0 9.3460059483 0 0 0 
0 -11.911039059 0 0 19.354345183 13.190851598 0.85127251102 0 13.698984555 
11.970905651 0 0 0 0 0 0 0 22.14564083 
8.572135977 0 17.853678983 0 0 0 0 24.995946566 0 
19.427270983 24.486127413 0 0 26.582572682 3.7779881433 0 13.697851018 0 
10.902543337 0 0.16459603492 1.7680692815 26.487181793 0 0 26.771137248 0.82301528065 
0 0 20.741571687 0 21.9148602 21.909234218 0 0 0 
0 26.440115881 0 0 0 2.9118611497 6.1077963426 0 0 
0 0.45393215504 0 0 15.031922976 8.0706427623 0 0 0 
0 16.599092097 0 0 19.672551503 0 0 0 0 
0 0 0.18776960931 16.678254527 0 0 0.021641880903 0 0 
0 0 0 0 0.69739567912 0 0 0 24.720086934 
0.58248101721 -1.7483391356 0 0 3.4618626211 0 -8.1112185949 0 0 
0 0 0 0 1.4639464583 -10.147047098 21.310928127 0 0 
0 0 25.305316141 0 16.348962339 0 0 0.43816154855 0 
0 0.057416656083 20.782150529 9.368400682 0 0 0 24.881580222 0.11509150438 
0 13.908527143 0 23.60434719 0 1.2755403364 0 0 0 
0 -9.8490941654 0 0 0 0.36736733033 0 0.13851040987 0 
0 0 5.8334764935 0 0 0 0 0 0 
0 0 0 0 0 0 -5.0896466243 0 0 
0 0.035234256418 0 0 0 -6.0241287866 0 19.920093019 0 
15.649272809 23.311916274 1.1515355607 23.212665211 0 0 0 26.627626965 0 
0 0 0 0 26.313455746 0.55650508214 0 21.244778486 0 
0 0 0 15.34681465 0 0.25374474992 0 0 0 
0 0 0 0 0 0 0 0 24.97414631 
0 0 0 4.1328263612 0 0 0 0 0 
1.3357567584 0.64287903606 0 0 0 0 0 0 0 
0 25.864127838 0 0 5.7842157903 1.3065634683 0 0 0 
0 0 -11.015681505 0 0.023304750856 0 0.087852464447 0 0 
0 0 0 0 0.030562260695 0 1.5188209514 0 0.23085872591 
0 -11.227931427 0 0 0 0 0 26.408362135 26.615947025 
0 0 0 0 0 3.2309680516e-220 0 0 0 
0 5.9403287021 -11.015961923 0.19327097354 0 1.4581706925 0 0 9.405015472 
0 0 14.906821164 0 0 0 23.575225269 0 0 
16.430053825 0 18.381413784 0 7.8192555562 0 0 0 0 
0.58418463378 23.678311968 0.022962511775 0 19.484910693 0.051406344941 0 0 0 
3.1154318307 0 23.569948692 0 -2.6072180122 0 0 0 0 
0 0 0 0 0 24.696335693 0 0 0.0087213383105 
0 8.5853616863 0 0 0 0.034031618965 0 13.510687508 0 
0 0 -10.949783791 0 0 0 0 0 0 
11.632997755 0 0 0 0 0.29105301069 0 0 0 
0 0 0 23.524830092 0 0 0 3.5391360954 -11.515451224 
0 0 0 0 4.6483248429 0 0.57867300312 0 0 
0 4.3304548166 0 0.15679792942 0.040994605985 0 8.1303287794 0 0 
0.065181803113 0 0 0 0 0 0 0 0 
0 0 0 0 0 0 0 0 0 
0 0 0 0 0 0 0 4.4883665755 0 
0 0 0 0 0 0 0.10893206412 0 0 
5.3275061354 0 1.8165521211 0 9.043814214 2.2342529605 0 0 0 
0 0 0 18.511659247 0 0 26.845326923 0 0 
0 0 0 20.271649495 0 0 0 20.4253861 0 
0 11.596834701 0 0 0 0 0.0074818033216 0 0 
9.0216356293 0 0 0 17.519173624 2.4201416757 0 0.052644584294 0 
0 1.5932830809 0 0 0 17.347213636 0 0 0 
0 0 0 0 0 0.14695756745 0 0 0 
0 0 0 0 0 0 0 0 26.498568062 
0 0 0 0 0 0.16804539081 0 0 0 
0 12.41126146 0 0 0 0 4.9099992876 0 0.77608924538 
0 0 4.2035802588 0 20.541377271 0 4.7362477999 9.3908332922 18.069988315 
1.1168162977 0.8238285334 21.071969348 12.944092491 0.2909721081 0 26.614657228 0 0 
0 0 0 0 0 0 0.49952175735 0.58821620094 0 
0 -11.244069626 0 0 0 0 0 0 20.540709571 
0 0 0 15.703420281 0 0 0 0 0 
0 0 0 0 1.2765210707 0 24.664438804 0 0.12965502725 
0.32658056228 0 21.54726904 -3.7641009192 0 26.771264505 21.245872861 0 0 
0 0 0 0 11.226792074 0 11.631788378 0 0 
0 -2.3987764445 0 21.356825844 0 0 0 0 0 
0 0 0 0 0 0 0 0 0 
0 0 0 0 0.53659132054 0 0 0 0 
0 0 0 0.015501134439 16.02227351 0 0 1.9525126809 0 
17.020345182 2.1013061501e-205 7.750045408e-206 0 0 15.369949298 0.0075029835222 -2.1476344042 0 
0.53601217417 0 20.782151498 0 -11.110201452 0 19.590312297 2.6225263362 0.0064434171143 
16.241994618 0 2.551582211 0 0 24.143640687 0 0 0 
15.188804082 0 0 16.030447513 0.02215761399 0 0 -11.244449354 0 
0 0 0 0 2.654229193e-220 0.44240100521 0 0 1.0451164778 
0 0 23.320193364 0 0 0 0 0 0 
0 0 0 0 23.625298186 0 0 26.425581631 0 
0 -6.9313636658 0 0 0 0 0 0 0 
0 0 0 0 0 0 26.459609311 7.55039632 0 
3.2211853965 3.7183653746 0 -6.0328977305 3.8074197251 0 -9.9583029956 0 13.420097083 
0 0 0 5.0512097503 0 0 17.850415972 0 0 
0 0 0 0 12.400521517 -5.0571982533 11.852014963 0 13.365245971 
0 0 0 0 0 0 0 4.9098783133 0 
0 0 0 0 10.703837388 0 6.4656985438 0 0 
0 -6.8722403103 7.5038814877 0 0 0 0 0 0 
0 0 0 0 0 11.960423885 0 4.3510213235 0 
0 0 0 0 0 0 0 0 0 
0 0 0 0 0 0 0 0 0 
0 0.063977042542 0 0 12.546233179 0 0 0 0 
0 0 0 0.29068247291 26.017845045 20.298711059 0 0 0 
0 0 0 0 0 8.5735308489 17.509744622 0 0 
0 0 0 23.449275149 4.3625545661 0 0 0 11.201313416 
0 0 0 11.598439024 0 0 0 0 0 
0 0 1.0841501175 0 0 0 0 0 0 
-6.0742305926 0 17.707620634 0 0 0 0 15.036421271 0 
0 0 0 0 4.8994590286e-164 1.2272688016e-163 4.0846092349e-164 0 23.576791837 
9.0402262328 0 0 0 0 1.771871912 0 0 0 
0 24.673604829 0 4.0767801167 0 0 0 6.9001809559 7.8191991552 
0 0 0 0 0 0 0 0 0 
0 0 0 0 0 5.8574752661 -10.088169208 -11.401378163 0 
25.860533375 0 0 5.056148106 0 0 0 0 0 
0 0 0 15.968847502 0 -5.5648063899 0 15.209273181 0 
0 14.786898186 0 0 21.486886256 18.709991781 0 2.6295002586 0 
14.571206647 26.540744597 0 0 0 0 0 0 0 
0 0 5.5705653256 0 0 0 0 0 26.315782223 
0 0 0 0.55305428832 0 0 0 0 0 
0 0 0 0 0 0 -11.883628991 0 0 
0 0 1.3397903981e-186 0 0 5.7919981767 0 0 0 
0 0 0 0 0 0 0 0 0 
0 0 0 0 0 0 0 0 0 
0 0 0 0 0 0 0 0 0 
0 0 0 0 0 0 0 0 0 
0 0 0 0 11.664446099 0 0 0 0 
0 0 0 0 0 1.6254774717e-119 0 0 0 
-3.1302352217 8.9532995132 0 0 0 0 0 23.307806863 0 
3.7668269308 0 0 0 0 0.48066756558 0 0 0 
0 0 0.29060467829 0 0 0 0.40083562766 0 0 
0 0 0 0 0 15.969432776 7.4284323855 0 0 
0 10.546614062 0 24.02586296 0 0 0 0 7.6240648504 
0 5.2473950918e-150 2.5976934142e-135 3.4141668476e-150 0 0 23.902237282 0 0 
24.182606018 26.517222993 2.0301294083 0 26.48633392 0 0 0 0 
0 0 0 -11.106774837 4.7332073126e-199 3.6634882346e-199 2.4200202729e-199 4.1381856493e-199 0 
-12.921601232 0 0 22.523901118 0 0.057918564273 -6.2264074192 -2.8583270874 0 
0 0 0 -13.109267453 0 0.50626470734 0 18.708643566 0 
0 0 20.987331333 0 0 0 23.901230695 0 0 
2.2356611463 0 0 0.76224840618 0 24.671927488 0 0 0 
0 0 0 0 0 0 0 -1.6279071193 0 
0 0 1.0860215932 0 0 0 0 9.7788859504 0 
0 0 0 26.214072947 0 0 0 1.2499759089 0 
1.5472936932e-192 1.2133582441e-192 2.4538859346e-192 0 10.708837914 0.081864715913 0 0 0 
0 0 0 0 0 0 0 0 26.379777283 
10.814772434 0 0 24.447280118 9.8640886005 0 18.06718512 0 0 
0 0 0 26.792254936 -2.3231566716 0.78613787352 0 3.4111526737e-169 0 
11.669315313 9.4080294794 11.637048272 0 0 0 0 0 0 
0 0 0 0 0 0 0 11.615802719 24.720393021 
-7.1935523692 19.646993128 0.41036252121 0 0 6.7074075492 0 20.535747776 0 
0 0 -9.9084116479 0 0 4.1740858061 4.2166655313 0 17.907798804 
3.106685353 0 0 -0.61604893883 0.075133365286 26.888406439 23.623398561 1.2712182932e-174 26.693054105 
0 0 0 15.465427311 0 0 6.3789366106e-175 0.43323760826 0.25714253895 
0 0 0 0 0 0 0 0 0 
0 -9.7889073829 0 1.5014057274e-132 13.365727548 0 0 0 0 
0 0 0 0 0 0 0 0 0 
0 5.427848806 0 0 0.39646844951 0 0 0 0 
0 -12.220594785 0 -11.211468908 14.42990014 24.77427482 0 0 0 
-7.242933475 0 0 26.483678076 0 0.90084678049 0 0 0 
0 0 8.0551508674 0 0 0.11854375349 0 0 -13.509115472 
-12.315839044 0 0 0 0 5.6654166852 0 0 0 
0 0 0 0 0 0 0 0 0 
0 0 17.530960022 0 0 0 16.239659477 27.318910279 0.1583936966 
0 0 0 0 0 0 0 0 0.97663444952 
0 -12.919757668 0 -10.332540596 -9.833942664 0 0 0 0 
0 0 0 0 0 0 -9.5800575679 0 0 
0 0 2.770295307 26.600693393 0 9.2645361798 -11.774855037 7.6314466301 0.08808908678 
1.8673210831 0 0 0.14931113987 0 0 0 9.0401255805 0 
0 0 0 7.5553586614 0 0 6.6817512394 0 0 
0 0 22.108740439 26.844135154 0 0.75335961462 5.4775345029 0 0 
0 12.650273498 0.19866475875 25.715543814 17.345626335 7.9057578962 0 0 0 
0 0 -12.629392725 25.441754858 0 0 0 19.674475353 0 
2.5648875702 1.5620884091 0 0 0 0 0 0 11.312953258 
0 12.94226155 0 0 0 0 0 0 0 
0 0 0 0 14.786251047 0 0 8.0496558558 0 
0 0 0 0 1.3781127479 -13.268290601 0 0 0 
0 0 0 -11.31190412 26.512264436 0 0 5.3160478709 -12.203496655 
0 0 0 0 0 0 0 0.69896352128 12.947774801 
0 -2.8619322752 -11.858139651 0 0 -6.0676066615 0 0 0 
0 13.47730026 0 0 0 0 0 -6.3573285033 0 
0 0 0 0 0 0 1.954648768e-118 1.4943549386e-121 3.3129132817e-122 
2.6185429667e-127 0 9.0361553522 0 0 0 0 0 0 
0 0 0 1.6153075934 0 0 0 0 -10.361110651 
2.1686892904 0 0 0 0 7.3381637291e-206 1.0810856827e-121 2.4605396725e-120 0.43367421006 
21.549129869 0 0 0 0 0 -12.630808433 0 22.698173638 
0 0 0 0 0 0 0 1.857936039 0 
0 0 -10.354898262 0.59165842363 -12.918012371 0 1.9478266128e-142 0 2.7526239123 
0 0 0 0 -9.5842609902 0 0 0.11886859193 0 
0 0 7.5859881312 0 0 0 0 0 4.5242185169 
0 0 0 0 -11.906489109 7.7504475574e-206 -10.972187578 0 0 
0 0 0 0 0 0 0 0 0 
0 0 0 0 -10.705311128 0 3.4305350172 0 0 
13.883183066 0 2.2689605979 0 0 0 0 0 0 
0 0 0 0 0 0 0 0 11.797776741 
0 0 16.587833928 0 0 0 8.7663552503e-228 0 0 
0 16.316140599 0 0 27.182486427 0.023547394135 0 0 0 
0 0 0 0 0 0.031032349275 0 0 0 
0 0 0 0 0.012023902021 0 14.806672307 0 7.6878862045 
1.5763430595e-154 1.1130231216e-145 0 1.4445119269e-227 0 1.1341115353e-227 1.7131798854e-154 1.7637037074e-227 10.805122487 
5.9088978038 0 0 0 0 0 0 0 0 
0 0 0.87489710705 0 0 0 0 0 0 
0 3.5506033309 0 26.394190426 0 1.5500293508e-154 2.1682788525e-146 0 12.581640089 
0.87662630994 0 0 0 0 0 0 0 0 
-10.078991354 0 0 0 0 0 0 0 0 
0 0 0 0 0 0 0 0 0 
0 3.110027924 1.8274083584 0 0 0 16.101753961 23.840675846 -12.215504478 
-8.3431464595 -9.7883898572 0 3.3469456836e-164 0 0 26.874094216 0 5.7771999141 
0 0 0 0.05340802905 0 0 0 -10.755566775 -3.9748808347 
0 3.067060386 0.51622412316 0 0 0 20.934993014 24.984457633 0 
11.776078655 0 0 0 0 0 0 0 0 
17.8088398 0 0 0 4.0252745624e-146 0 0 0 0 
24.377248562 11.395885577 0 0 -11.229416781 0 0 0 0 
-0.044480929041 -1.6100037605 0.022312391935 0 0 -6.7207343188 0 0 0 
19.209957201 0 0 0 0 0 0 0 0 
0 0 0 0 5.9057480895 0 20.417388312 0 0 
0 6.0955856557 11.351730839 0 0 0 22.990395307 20.202227937 0 
12.39480301 0 0 0 0 0 0 5.7830818435 0 
0 0 0 0 0 20.178811404 0 0 0 
0 0 0.16181041082 0 0 0 0 0 0 
0 0 0 0 0 26.812302209 0 0 0 
-1.1667059868 -8.6255648168 3.4111526737e-169 0 8.5805453479e-139 6.6210505632e-139 8.8288049622e-139 2.5174916303e-142 0 
0 0 23.549877129 15.786292539 7.7529567295 0 0.5865529105 0 0 
0 0 1.4108905456 -6.8411232417 0 0 0 0 0.28641440259 
0 24.493943302 0 0 0 0 0 0 23.290435542 
0 0 0 0 25.304687496 0 0 19.912423953 14.42627528 
0.85899447764 0 0 11.049599941 -11.617055612 0 1.274591106e-117 0 0 
0 0 0 0 0 0 0 0 11.597363282 
0 0 0 0 0 0 0 0 0 
0 0 -2.0860189088 4.2475841424 0 0 0 0 0 
0 0 0 -1.631854913 23.168848628 0 0 0 15.113636663 
0 0 19.204981718 0.023398102633 21.955672041 0 0 24.55885836 26.363758711 
13.896643486 12.022738328 37.923339526 0 0 0 0 0 13.695593928 
-11.511209386 0.16290731807 2.5402252313e-142 0 0 1.2832776551 24.517346542 2.3148415547 2.6337826878 
0 0 0 0 0 0 0 0 0 
0.15905923728 0 0 0 0 0 0 0 0 
0 0.078935271774 0 0 50.573201294 0 -11.666978306 0 0 
0 0 0 11.049689933 13.142993819 0 0 0 0 
0 0.37574771778 0 0 0 0 19.895197621 0 0 
0 0.51371116741 0 2.8221647559 0 -8.6942297155 2.9975509701e-119 0 1.2962903369e-180 
3.2961225757e-117 0 0 2.5357419701e-180 1.5993447062e-121 0 0 0 16.435033606 
12.29461859 0.16827972892 0 0 0 -11.873921929 0.5000492039 0 0 
0 1.7329858094 3.26871719 0 0 -12.81564064 5.1219289152 14.807363374 0 
0 0 0 0 0 0 0 -9.8379903559 0 
0 0 0 0 0 0 0 0 0 
0 0 0 0 0 0 0 0 0 
0 -8.6867265175 0 0.2849913604 0 0 0 0 0 
0 -7.2475673014 -10.964158982 0 0 18.243062997 0.012981187269 16.846649449 0 
2.5357419701e-180 0 0 0 1.3758487054 2.2611993624 0.59220584217 26.349078811 8.0765688354 
0 0.19598259351 0 0 0 0 0 0 0 
0 0 0 0 0 0 0 0 0 
0 0 0 0 0 0 0 0 0 
0 0 2.0947781324 0 0 0 0 0 0 
0 0 1.2632805008 0 0 0 0 0 0 
0 0 0 0 0 0 0 0 0 
0 0 0.32523720418 0 -4.0567297401 0 0.0064256328769 0 0 
0 0 0 0 0 0 0 0 0 
0 0 0 0 0 0 0 0 0 
0 -11.119751426 0 0 0 0 0 0 24.691441655 
0 0 0 0 0 0 0 0 0 
0 0 -3.409201831 0 0 0 0 0.81732946853 4.6921294243 
4.6947657463 0.81965795728 0.02523121481 20.198105179 0 0 0 18.17632788 24.039749956 
0 0 0 0 0 0 0 0 0 
0 0 0 0 0 0 0 0 0 
-11.594020139 0 1.5510016217 0 0 0 0 0 0 
0 0 0 0 0 0 0 11.239589658 1.2005801664 
0 0 0 0 0 0 5.3204590744 -10.493362218 88.514382369 
0 0 5.7311930319 26.325456364 0 1.4252594516 21.915202536 2.5357419701e-180 6.7923321668e-213 
5.9673493886e-213 6.7923321668e-213 7.4212832452e-213 0 0 0.16828532627 5.2348480103 10.657877772 20.979747652 
19.907433933 22.769334369 20.925404273 0 0 0 0 -1.2607370232 -11.05747509 
12.938629048 0 0 0 0 0 0 0 0 
0 -3.9908892969 0 0 0 0 0 0 0 
0 0 0 0 0 0 0 0 0 
0 0 0 0 0 -11.774752427 -9.0319927028 0.14785178391 0 
0 0 0 0 0.78702319862 0 0 0 0 
0 0 0 0 0 0 0 21.752679403 0 
0.51559874898 2.5487739734 0 0 27.147587398 0 0 0 0 
0 0 0 0 0 10.805712948 0 0 0.010835665499 
0.01294970266 0.012950260758 2.5134347685 0 0 0 0 0 26.655661919 
18.884389538 51.435037961 0 0 0 0 -10.084792529 0 0 
0 0 2.1717285534 0.019740587823 9.7465716445 -8.9443045652 -12.11681637 7.1443169443 0 
2.5357419701e-180 2.5739584119e-180 0 2.3406167759e-180 11.93548779 12.093765162 11.671439251 26.654831645 0 
0 11.3624791 0.86923294347 0 0 0 0 0 0 
0 0 0 0 -1.7278488729 0 0 0 0 
9.1809801509 0 0 0 0 0 0.02165300967 7.8814546463 4.4869434396 
0.58764421811 2.5394820802 -5.903446382 0 0 0 0 -10.920921643 0 
27.155465963 0 0.67037571367 0 23.157301631 0 0 -5.3019667604 0 
0 0 0 0 0 0 0 14.720009089 0.12831452052 
5.836896688 0 0.15933181703 1.2631322954 0.030604790195 0.14711763002 0 0 0 
0 15.209831727 0 5.7973792873 3.101928025 0 0 0 0 
0 0 0 0 0 0 0 0 0.39125079493 
0 0 0 0 0 0.05807321035 0 0 0 
0 0 -8.372873282 1.2098512076 0 10.306247181 0 1.7025647584 0 
0 0 0 0 0 0 0.31725958446 0 15.406086185 
4.7330472651 7.6203227767 4.6198273056 0 0 0 5.2459199305 1.4640928017 -2.4028870258 
25.282765922 0 0 0 0 18.208133508 0 0 0 
0 0.0080363585084 0.97655489632 0 0 0 0 0 0.72516297671 
0.10409932557 19.672803449 0 0 0 0 -6.8316045997 0 26.562268743 
0 0 23.661321162 0 0.17524226525 1.3062990842 0 0.10357137108 7.7774742184e-130 
2.5424698334e-123 6.8223945616e-118 0 0 2.2473729579e-118 0 1.954648768e-118 0 7.3204781213e-119 
0 0.12817514542 10.049279075 17.292951998 3.0695411904 11.453210949 0.032270833144 0 0 
0 4.3336085578 -6.4386777052 2.0280258671 0 0 -9.9521739538 0 0 
0 0 0 0 0 0 0 0 0 
0 0 2.0387679697 0 0 0 -4.9753019241 -10.064699153 0 
0 -9.946214552 0 5.6662315516 8.8037955869 0 0 0 0 
0 0 0 0 3.6066502301 0 0 0 -9.8330581233 
0 7.5016246984 13.096567377 9.1808656253 1.2085448244 11.496630355 11.779290261 23.341426054 21.747446297 
0 0 0 -10.192643071 -9.846590727 0.32584403402 0.39361815072 24.659280924 0 
-7.9678295422 0 0 0 0 25.820097522 0 0 3.3520607648 
1.0621632878 0 -12.802514885 0 3.8541850595 2.9975509701e-119 7.7774742185e-130 3.2074983677e-119 9.7640442617e-130 
2.6279225409e-169 2.9975509701e-119 5.3287772499e-130 0 0.025206738003 1.1009237838 2.6246470791 4.9328736488 7.8747373821 
2.6695898208 11.090865442 4.3602577834 14.192780108 16.873978236 18.97550835 20.447009279 11.601833705 21.304448095 
25.158378742 21.584582445 21.304649334 20.447521363 16.3171345 18.976500619 11.603035876 10.110311608 7.8774331607 
2.6267533677 1.1024665762 0.31639962896 9.1909926012 3.3382682914 4.6138680662 1.4325116028 0.024051625675 0 
0 0 17.992115837 23.614654211 26.66441583 26.005742715 14.444064926 16.040549404 0 
0 0 -7.1916182527 -6.8205274798 0 0 0 0 0 
0 0 0 -9.7349965641 -4.9601236597 -11.981726428 -12.300555583 -11.884622035 5.8019530805 
-11.106449526 11.850259695 0 5.5659917742 0 0 0 0 8.5776430123 
13.095824634 0 0 0 0 0 0 0 0.015742464211 
-9.7062710284 25.136491726 0 -7.0398238839 24.474661926 11.311959466 10.545948327 13.477596689 16.006887524 
0.36482770293 0.54925385502 0.7233103141 0.85847365393 0.93288832254 0 0 0 -10.721550359 
-12.397565013 3.2595075118 0 0 0 3.8865463778 0 0 0.93375161161 
0 0 0 0 20.922003738 0 0 16.127201212 15.470416899 
0.11843392427 5.9815132477 0 0.93179003576 0 0 0 0 82.605885975 
0 0 0 0.05260813146 0 0 3.4363466215 9.6490595899 7.1228341367 
0 26.918817595 0.20103504102 1.3991171914 24.463481567 -9.8739299497 14.631994846 4.7332073126e-199 0 
3.4111526737e-169 2.6185429668e-127 1.198556068e-127 2.4579036316e-169 9.2818403685e-128 0 0 15.783820803 24.650710308 
14.930303342 6.4862632989 23.632228803 15.145871017 0 0 -10.0484334 15.363295154 0 
0 -6.7124073016 0 0 0 0 -12.483249744 0 1.1157747679 
-2.4089470917 0 0 0 0.54359538184 0 0 0 0 
1.6955412882 6.4962181639 6.705835144 19.270823493 22.890966559 1.8269599014 0.37577881978 0 0 
0 0 24.682107486 23.532350393 0 0 13.473512706 55.476443575 -2.9645729437 
0 0 20.418938032 0 -11.105501843 26.308231451 0 23.446765319 20.416616603 
9.0479914111 0 0 -13.414381993 -12.475044809 -12.277654711 -11.868293272 2.1087300328 3.7345589098e-199 
0 1.710578955e-135 1.4816388425e-117 4.8082977168e-123 0 4.7332073126e-199 0 1.0204354133e-198 0 
3.4141668476e-150 2.6466688622e-135 1.537498981e-117 2.9975509701e-119 1.7578352499e-135 0 0 0 3.4443673845 
0.8525703298 5.9430637883 0 1.4003966052 2.6875391365 18.008179083 16.588278969 26.419127173 24.975452283 
21.481535707 12.314599895 0 26.856068514 0 0 4.8676094763 6.1200289898 1.7080275403 
6.1215718604 11.756052459 19.488564272 26.331986494 25.52601272 24.985795649 7.6809511601 3.4259269467 0.72134490519 
25.007896702 17.51722453 5.622156884 0 0 0 0 0 0 
0 0 0 0 0 0 0 0 -9.5205895949 
0 0 1.1912711016 -11.024894602 -4.6479511961 -11.871296715 2.6441074026 0 0 
0 0 0 4.3455493204 15.115024284 0 0 0.15926526287 0 
0 0 0 0 0.064003200839 0.93080014035 25.835796333 0 0 
0 3.1180737671 17.961152149 -9.6999831054 7.3233405561 62.829230674 4.1994322961 10.433622189 26.235303647 
0 0 10.702982905 3.6021706831 0 0 0 0 23.349305699 
0 0 25.529662889 26.611194291 23.047225759 0 0 26.477004557 0.023372352819 
16.311025651 0 -1.8316262232 26.553141466 2.54838782 0.026214055485 0 0 0 
0 24.460238536 24.721389955 20.919752574 19.043688057 0.19333690207 13.224854701 -2.2427612563 0.74703597787 
0 26.017869896 0 4.5990663555 23.657834678 0 15.035224102 11.659898999 9.3606772583 
20.929938189 1.2662765946 11.026682283 0 0 1.274591106e-117 2.5424698334e-123 1.5513989928e-135 7.0317853118e-118 
0 0 5.1590528137e-146 1.5513989928e-135 8.0064781237e-118 1.4279084131e-123 0 12.091265909 23.548997662 
4.2928010234 6.9855255485 7.7404938268 8.110981868 1.552376005 1.3798256102 26.678433244 27.238019334 27.167852848 