# vtk DataFile Version 4.2
vtk output
ASCII
DATASET UNSTRUCTURED_GRID
POINTS 4342 double
-0.6 -0.6 0 0.6 -0.6 0 0.6 0.6 0 
-0.6 0.6 0 0 0 0 -0.58 -0.6 0 
-0.56 -0.6 0 -0.54 -0.6 0 -0.52 -0.6 0 
-0.5 -0.6 0 -0.48 -0.6 0 -0.46 -0.6 0 
-0.44 -0.6 0 -0.42 -0.6 0 -0.4 -0.6 0 
-0.38 -0.6 0 -0.36 -0.6 0 -0.34 -0.6 0 
-0.32 -0.6 0 -0.3 -0.6 0 -0.28 -0.6 0 
-0.26 -0.6 0 -0.24 -0.6 0 -0.22 -0.6 0 
-0.2 -0.6 0 -0.18 -0.6 0 -0.16 -0.6 0 
-0.14 -0.6 0 -0.12 -0.6 0 -0.1 -0.6 0 
-0.08 -0.6 0 -0.06 -0.6 0 -0.04 -0.6 0 
-0.02 -0.6 0 -8.881784197e-16 -0.6 0 0.02 -0.6 0 
0.04 -0.6 0 0.06 -0.6 0 0.08 -0.6 0 
0.1 -0.6 0 0.12 -0.6 0 0.14 -0.6 0 
0.16 -0.6 0 0.18 -0.6 0 0.2 -0.6 0 
0.22 -0.6 0 0.24 -0.6 0 0.26 -0.6 0 
0.28 -0.6 0 0.3 -0.6 0 0.32 -0.6 0 
0.34 -0.6 0 0.36 -0.6 0 0.38 -0.6 0 
0.4 -0.6 0 0.42 -0.6 0 0.44 -0.6 0 
0.46 -0.6 0 0.48 -0.6 0 0.5 -0.6 0 
0.52 -0.6 0 0.54 -0.6 0 0.56 -0.6 0 
0.58 -0.6 0 0.6 -0.58 0 0.6 -0.56 0 
0.6 -0.54 0 0.6 -0.52 0 0.6 -0.5 0 
0.6 -0.48 0 0.6 -0.46 0 0.6 -0.44 0 
0.6 -0.42 0 0.6 -0.4 0 0.6 -0.38 0 
0.6 -0.36 0 0.6 -0.34 0 0.6 -0.32 0 
0.6 -0.3 0 0.6 -0.28 0 0.6 -0.26 0 
0.6 -0.24 0 0.6 -0.22 0 0.6 -0.2 0 
0.6 -0.18 0 0.6 -0.16 0 0.6 -0.14 0 
0.6 -0.12 0 0.6 -0.1 0 0.6 -0.08 0 
0.6 -0.06 0 0.6 -0.04 0 0.6 -0.02 0 
0.6 -8.881784197e-16 0 0.6 0.02 0 0.6 0.04 0 
0.6 0.06 0 0.6 0.08 0 0.6 0.1 0 
0.6 0.12 0 0.6 0.14 0 0.6 0.16 0 
0.6 0.18 0 0.6 0.2 0 0.6 0.22 0 
0.6 0.24 0 0.6 0.26 0 0.6 0.28 0 
0.6 0.3 0 0.6 0.32 0 0.6 0.34 0 
0.6 0.36 0 0.6 0.38 0 0.6 0.4 0 
0.6 0.42 0 0.6 0.44 0 0.6 0.46 0 
0.6 0.48 0 0.6 0.5 0 0.6 0.52 0 
0.6 0.54 0 0.6 0.56 0 0.6 0.58 0 
0.58 0.6 0 0.56 0.6 0 0.54 0.6 0 
0.52 0.6 0 0.5 0.6 0 0.48 0.6 0 
0.46 0.6 0 0.44 0.6 0 0.42 0.6 0 
0.4 0.6 0 0.38 0.6 0 0.36 0.6 0 
0.34 0.6 0 0.32 0.6 0 0.3 0.6 0 
0.28 0.6 0 0.26 0.6 0 0.24 0.6 0 
0.22 0.6 0 0.2 0.6 0 0.18 0.6 0 
0.16 0.6 0 0.14 0.6 0 0.12 0.6 0 
0.1 0.6 0 0.08 0.6 0 0.06 0.6 0 
0.04 0.6 0 0.02 0.6 0 8.881784197e-16 0.6 0 
-0.02 0.6 0 -0.04 0.6 0 -0.06 0.6 0 
-0.08 0.6 0 -0.1 0.6 0 -0.12 0.6 0 
-0.14 0.6 0 -0.16 0.6 0 -0.18 0.6 0 
-0.2 0.6 0 -0.22 0.6 0 -0.24 0.6 0 
-0.26 0.6 0 -0.28 0.6 0 -0.3 0.6 0 
-0.32 0.6 0 -0.34 0.6 0 -0.36 0.6 0 
-0.38 0.6 0 -0.4 0.6 0 -0.42 0.6 0 
-0.44 0.6 0 -0.46 0.6 0 -0.48 0.6 0 
-0.5 0.6 0 -0.52 0.6 0 -0.54 0.6 0 
-0.56 0.6 0 -0.58 0.6 0 -0.6 0.58 0 
-0.6 0.56 0 -0.6 0.54 0 -0.6 0.52 0 
-0.6 0.5 0 -0.6 0.48 0 -0.6 0.46 0 
-0.6 0.44 0 -0.6 0.42 0 -0.6 0.4 0 
-0.6 0.38 0 -0.6 0.36 0 -0.6 0.34 0 
-0.6 0.32 0 -0.6 0.3 0 -0.6 0.28 0 
-0.6 0.26 0 -0.6 0.24 0 -0.6 0.22 0 
-0.6 0.2 0 -0.6 0.18 0 -0.6 0.16 0 
-0.6 0.14 0 -0.6 0.12 0 -0.6 0.1 0 
-0.6 0.08 0 -0.6 0.06 0 -0.6 0.04 0 
-0.6 0.02 0 -0.6 8.881784197e-16 0 -0.6 -0.02 0 
-0.6 -0.04 0 -0.6 -0.06 0 -0.6 -0.08 0 
-0.6 -0.1 0 -0.6 -0.12 0 -0.6 -0.14 0 
-0.6 -0.16 0 -0.6 -0.18 0 -0.6 -0.2 0 
-0.6 -0.22 0 -0.6 -0.24 0 -0.6 -0.26 0 
-0.6 -0.28 0 -0.6 -0.3 0 -0.6 -0.32 0 
-0.6 -0.34 0 -0.6 -0.36 0 -0.6 -0.38 0 
-0.6 -0.4 0 -0.6 -0.42 0 -0.6 -0.44 0 
-0.6 -0.46 0 -0.6 -0.48 0 -0.6 -0.5 0 
-0.6 -0.52 0 -0.6 -0.54 0 -0.6 -0.56 0 
-0.6 -0.58 0 0.25 -0.58267949192 0 -0.25 -0.58267949192 0 
-0.24969338163 0.58271630631 0 0.58313820224 0.25089999788 0 -0.58073798855 0.23055415423 0 
0.23 0.58267949192 0 0.5822727489 -0.23023532651 0 -0.58232885758 -0.22986293355 0 
-0.13 -0.58267949192 0 0.58091085312 0.12866705289 0 -0.13050081 0.58443309409 0 
0.13 -0.58267949192 0 0.11 0.58267949192 0 0.58128887437 -0.11185352307 0 
-0.58641004823 0.11046978504 0 -0.58097603768 -0.11235367818 0 -0.01 0.5841811861 0 
0.01 -0.58267949192 0 0.58217507245 0.011050809949 0 -0.58206506685 -0.010494327869 0 
0.58255589861 -0.33012459525 0 -0.58098267687 0.33246863147 0 0.33 0.58267949192 0 
-0.58090018381 -0.32734039494 0 0.35 -0.58267949192 0 0.58210978525 0.34851718814 0 
-0.34984356206 0.58269328777 0 -0.35 -0.58267949192 0 -0.58404031657 -0.41125547479 0 
0.58404031657 -0.41125547479 0 0.41 0.58267949192 0 -0.58127371569 0.40748932397 0 
0.43 -0.58267949192 0 0.58287041801 0.42966930632 0 -0.43030661837 0.58271630631 0 
-0.43 -0.58267949192 0 0.49 0.58267949192 0 0.58119455181 -0.49272606834 0 
-0.58196591894 0.48785347999 0 -0.58132747275 -0.49216380446 0 0.58099079541 0.19297246443 0 
-0.18926154554 0.58413656679 0 0.05 0.58267949192 0 0.19 -0.58267949192 0 
-0.07 -0.58267949192 0 0.58212565717 -0.051217328366 0 -0.07 0.58267949192 0 
0.58245912871 0.070013739955 0 0.07 -0.58267949192 0 0.58168449499 -0.17128271923 0 
-0.58574378526 0.05125913651 0 0.17050081 0.58443309409 0 -0.58168449499 -0.17128271923 0 
-0.58573295936 0.16883725031 0 -0.19 -0.58267949192 0 0.49 -0.58267949192 0 
-0.49050081 0.58443309409 0 0.58415322569 0.48921568047 0 -0.49 -0.58267949192 0 
0.53 -0.58267949192 0 0.58203286059 0.53119351335 0 -0.53 0.58267949192 0 
-0.58222913959 -0.53018403998 0 0.58202539473 0.28969699417 0 -0.29 0.58267949192 0 
-0.58451963751 -0.45057023735 0 -0.58267949192 -0.07 0 -0.29 -0.58267949192 0 
-0.03 -0.58267949192 0 0.39 -0.58267949192 0 0.58307204747 0.39068583015 0 
-0.39 0.58373814012 0 0.29 -0.58267949192 0 0.58208722445 -0.45065236781 0 
0.45042926572 0.58129593389 0 -0.58211115223 0.44955595746 0 -0.58432719917 -0.36932980655 0 
-0.58406793967 -0.26883049013 0 0.5820526686 -0.36901719046 0 0.37 0.58267949192 0 
-0.5823078615 0.36998422007 0 -0.39 -0.58267949192 0 -0.58211498987 0.271305057 0 
-0.53 -0.58267949192 0 0.58222913959 -0.53018403998 0 0.53 0.58373814012 0 
-0.58219774606 0.53090792334 0 0.58030324732 -0.28813008885 0 0.29050081 0.58443309409 0 
-0.58188605505 -0.56816348762 0 0.56922649731 -0.58312607391 0 0.58067979276 0.57009350437 0 
-0.57009384201 0.58146184644 0 0.54987108288 -0.58275392226 0 0.53997851381 -0.5653713889 0 
0.51999641897 -0.56536105136 0 0.52999582213 -0.54804088787 0 0.50999870685 -0.54803922237 0 
0.51999908816 -0.53071849415 0 0.4999996325 -0.53071817987 0 0.50999978678 -0.51339758273 0 
0.48999990321 -0.5133975155 0 0.49999994833 -0.49607698138 0 0.47999997526 -0.49607696583 0 
0.48999998726 -0.47875645082 0 0.46999999375 -0.47875644708 0 0.47999999684 -0.46143593722 0 
0.45999999843 -0.4614359363 0 0.46999999921 -0.44411542777 0 0.44999999961 -0.44411542755 0 
0.4599999998 -0.42679491936 0 0.4399999999 -0.4267949193 0 0.44999999995 -0.4094744112 0 
0.42999999998 -0.40947441118 0 0.43999999999 -0.3921539031 0 0.41999999999 -0.3921539031 0 
0.43 -0.37483339502 0 0.41 -0.37483339502 0 0.42 -0.35751288694 0 
0.4 -0.35751288694 0 0.41 -0.34019237886 0 0.39 -0.34019237886 0 
0.4 -0.32287187079 0 0.38 -0.32287187079 0 0.39 -0.30555136271 0 
0.37 -0.30555136271 0 0.38 -0.28823085464 0 0.36 -0.28823085464 0 
0.37 -0.27091034656 0 0.35 -0.27091034656 0 0.36 -0.25358983849 0 
0.34 -0.25358983849 0 0.35 -0.23626933041 0 0.33 -0.27091034656 0 
0.32 -0.25358983849 0 0.31 -0.27091034656 0 0.3 -0.25358983849 0 
0.29 -0.27091034656 0 0.28 -0.25358983849 0 0.27 -0.27091034656 0 
0.26 -0.25358983849 0 0.25 -0.27091034656 0 0.27 -0.23626933041 0 
0.24 -0.25358983849 0 0.23 -0.27091034656 0 0.22 -0.25358983849 0 
0.21 -0.27091034656 0 0.2 -0.25358983849 0 0.19 -0.27091034656 0 
0.18 -0.25358983849 0 0.17 -0.27091034656 0 0.19 -0.23626933041 0 
0.16 -0.25358983849 0 0.15 -0.27091034656 0 0.14 -0.25358983849 0 
0.13 -0.27091034656 0 0.12 -0.25358983849 0 0.11 -0.27091034656 0 
0.1 -0.25358983849 0 0.09 -0.27091034656 0 0.08 -0.25358983849 0 
0.07 -0.27091034656 0 0.06 -0.25358983849 0 0.05 -0.27091034656 0 
0.04 -0.25358983849 0 0.03 -0.27091034656 0 0.02 -0.25358983849 0 
0.01 -0.27091034656 0 -1.7474921972e-14 -0.25358983849 0 -0.01 -0.27091034656 0 
-0.02 -0.25358983849 0 -0.03 -0.27091034656 0 -0.04 -0.25358983849 0 
-0.05 -0.27091034656 0 -0.06 -0.25358983849 0 -0.07 -0.27091034656 0 
-0.08 -0.25358983849 0 -0.09 -0.27091034656 0 -0.1 -0.25358983849 0 
-0.11 -0.27091034656 0 -0.12 -0.25358983849 0 -0.13 -0.27091034656 0 
-0.14 -0.25358983849 0 -0.15 -0.27091034656 0 -0.16 -0.25358983849 0 
-0.17 -0.27091034656 0 -0.18 -0.25358983849 0 -0.19 -0.27091034656 0 
-0.2 -0.25358983849 0 -0.21 -0.27091034656 0 -0.22 -0.25358983849 0 
-0.21 -0.23626933041 0 -0.23 -0.23626933041 0 -0.22 -0.21894882233 0 
-0.23 -0.27091034656 0 -0.24 -0.21894882233 0 -0.23 -0.20162831426 0 
-0.25 -0.20162831426 0 -0.24 -0.18430780618 0 -0.26 -0.18430780618 0 
-0.25 -0.16698729811 0 -0.27 -0.16698729811 0 -0.26 -0.14966679003 0 
-0.27 -0.20162831426 0 -0.28 -0.14966679003 0 -0.27 -0.13234628196 0 
-0.29 -0.13234628196 0 -0.28 -0.11502577388 0 -0.3 -0.11502577388 0 
-0.29 -0.097705265805 0 0.22 -0.28823085464 0 0.1 -0.28823085464 0 
-0.1 -0.28823085464 0 -0.22 -0.28823085464 0 -0.24 -0.28823085464 0 
0.02 -0.28823085464 0 -0.31 -0.13234628196 0 -0.31 -0.097705265805 0 
-0.3 -0.080384757729 0 -0.28 -0.080384757729 0 -0.29 -0.063064249654 0 
-0.31 -0.063064249654 0 -0.3 -0.045743741578 0 -0.28 -0.045743741578 0 
-0.29 -0.028423233502 0 -0.27 -0.028423233502 0 -0.28 -0.011102725427 0 
-0.3 -0.011102725427 0 -0.29 0.0062177826491 0 -0.27 0.0062177826491 0 
-0.28 0.023538290725 0 -0.26 0.023538290725 0 -0.27 0.0408587988 0 
-0.25 0.0408587988 0 -0.26 0.058179306876 0 -0.24 0.058179306876 0 
-0.25 0.075499814952 0 -0.23 0.075499814952 0 -0.24 0.092820323028 0 
-0.22 0.092820323028 0 -0.23 0.1101408311 0 -0.21 0.1101408311 0 
-0.22 0.12746133918 0 -0.2 0.12746133918 0 -0.21 0.14478184725 0 
-0.19 0.14478184725 0 -0.2 0.16210235533 0 -0.18 0.16210235533 0 
-0.19 0.17942286341 0 -0.17 0.17942286341 0 -0.21 0.17942286341 0 
-0.2 0.19674337148 0 -0.22 0.19674337148 0 -0.21 0.21406387956 0 
-0.23 0.21406387956 0 -0.22 0.23138438763 0 -0.24 0.23138438763 0 
-0.23 0.24870489571 0 -0.21 0.24870489571 0 -0.25 0.24870489571 0 
-0.27 0.075499814952 0 -0.22 0.26602540378 0 -0.2 0.26602540378 0 
-0.21 0.28334591186 0 -0.19 0.28334591186 0 -0.31 0.0062177826491 0 
-0.23 -0.16698729811 0 0.11 -0.23626933041 0 -0.2 0.30066641994 0 
-0.18 0.30066641994 0 -0.23 -0.30555136271 0 -0.25 -0.30555136271 0 
0.39 -0.37483339502 0 -0.09 -0.23626933041 0 -0.19 0.31798692801 0 
[...]
CELL_DATA 8442
FIELD FieldData 1
radiation%20flux%20density 1 8442 double
0 0 0 0 0 0 0 0 0 
0 0 0 0 0 0 0 0 0 
0 0 0 0 0 0 0 0 0 
0 0 0 0 0 0 0 0 0 
0 0 0 0 0 0 0 0 0 
0 0 0 0 0 0 0 0 0 
0 0 0 0 0 0 0 8.5664566764e-227 0 
1.4133053486e-117 0 0 0 0 4.2682051544e-138 0 0 0 
0 1.4876947905e-119 0 0 0 0 0 0 0 
0 0 0 0 0 0 0 0 2.6668987008e-124 
2.6668987008e-124 0 0 0 0 0 0 0 0 
0 0 0 0 0 0 0 0 0 
0 0 0 0 0 0 0 0 0 
0 0 0 0 0 0 0 0 0 
0 0 0 0 0 0 0 0 0 
0 0 0 0 0 0 398.30440343 398.29239135 0 
0 0 0 0 0 0 0 0 0 
0 0 0 0 0 0 0 0 0 
0 0 0 0 0 0 0 0 0 
0 0 398.98591247 399.03002937 0 399.27885692 399.25722281 0 0 
0 0 0 0 0 0 0 0 0 
0 0 0 0 0 0 0 0 0 
0 0 0 0 0 0 0 0 0 
0 0 0 0 0 0 0 0 0 
0 0 0 0 0 0 0 0 0 
0 0 0 0 0 0 0 0 0 
0 0 0 0 0 0 0 0 0 
0 0.043124804255 0 0 0 0 0 0 0 
0 0 0 0 0 0 0 0 0 
0 0 0 0 0 0 0 0 0 
0 0 0 0 0 0 0 0 0 
0 0 0 0 0 0 0 0 0 
0 0 0 0 0 0 0 0 0 
0 40.365903257 55.340224888 0 0 0 2.4354190988 0 0 
0 0 0 0 0 0 0 0 89.463427578 
0 0 0 0 0 0 0 0 0 
0 0 0 0 62.842114482 0 75.007858636 0 0 
0 0 0 78.071077657 0 60.640302045 44.195726978 0 32.478542519 
0 93.300001143 0 93.903069946 74.188106764 0 0 0 0 
87.389293131 0 0 0 0 0 26.936654126 82.40398323 0 
0 93.227035744 0 0 0 0.25221982462 13.487781555 0.0058919062034 0 
0.10690529521 0 0 0.067565778449 0 10.459181735 0 0 0 
0 0.15336697905 0 0 0.84122249886 0 0 0 0 
0 0 0 17.022696514 9.6916501188 0 0 0 0 
0 0 0 3.8248712887 0 0 0.016693980505 0 0 
5.6489947888 0 0 0 0 0 84.694097786 0 0 
0 82.118513913 2.0517039978 0 0 0 69.043650082 28.63922627 0 
0 0 0 0 70.993543068 0 0 0 0 
0 0 0 0 1.0825249488 0 0 0 0 
0 53.054344514 43.067822897 92.906239351 0 0 0 0 0 
0 0 0 0 0 32.422770162 0 0 0 
0 -42.054946853 0 0 67.991778616 47.297791569 3.5837010211 0 47.879828374 
41.749262491 0 0 0 0 0 0 0.047356614747 77.970822178 
29.675079982 0 62.67695793 0 0 0 0 88.233422007 0 
68.272691317 87.150241953 0 0 94.42170155 12.730904363 0 47.875348642 0 
39.235221078 0 0.99075919105 6.8597592959 93.805575527 0 0 94.99764774 3.4791259382 
0 0 72.973254936 0 77.137104367 77.131819578 0 0 0 
0 93.581802049 0 0 0 10.928174435 22.282616683 0 0 
0 2.1072706351 0 0 52.62469092 29.213569085 0 0 0 
0 59.344100456 0 0 70.214657998 0 0 0 0 
0 0 1.0813259019 59.626907654 0 0 0.3116642894 0 0 
0 0 0 0 3.0154839528 0 0 0 87.968073125 
2.5834824092 -6.7974344698 0 0 12.90937945 0 -28.303222655 0 0 
0 0 0 0.044932805734 5.7673892832 -35.55813661 75.00742694 0 0 
0 0.041101063607 89.325469546 0 58.468253191 0 0 2.0530787395 0 
0 0.48849602959 74.121035321 32.503154025 0 0.015467086669 0 88.527985898 0.79094225029 
0 49.831652027 0 83.21927753 0 3.8914590365 0 0 0 
0 -35.202940863 0 0 0 1.7666565479 0 0.87037686266 0 
0 0 21.310907311 0 0 0 0 0 0 
0 0 0 0 0 0 -18.565039769 0.088118641327 0 
0 0.38231425368 0 0 0 -21.840358879 0 71.098429611 0 
54.833488791 82.148530329 4.6537539683 82.687919836 0 0 0.0058918285157 94.178144939 0 
0 0 0 0 93.499220663 2.4858252083 0 75.75712948 0 
0 0 0 54.913374096 0 1.3250522871 0 0 0 
0 0 0 0 0 0 0 0 88.885686911 
0 0 0 14.012271869 0 0 0 0 0 
5.303085688 2.8105426273 0 0 0 0 0 0 0 
0 91.393091395 0 0 21.143878233 5.1985795994 0.057270852494 0 0 
0 0 -38.814556111 0 0.33149309508 0 0.65125883447 0 0 
0 0 0 0 0.33367505337 0 5.9676325517 0 1.2343461252 
0 -39.923720069 0 0 0 0 0 93.747993007 94.24535583 
0.081556311313 0 0 0 0 1.145348353e-219 0 0 0 
0.020804181862 21.691606504 -38.815059425 1.1154604925 0 4.5167082674 0 0 33.928535281 
0 0 53.358853876 0 0 0 83.106347007 0 0 
58.760696169 0 65.656057146 0 28.309434174 0 0 0.15035576322 0 
2.5023544193 84.312336995 0.33973857004 0 68.484207105 0.47187952398 0 0 0 
11.669986691 0 83.076646094 0 -8.7870633727 0 0.1267014443 0 0 
0 0 0 0 0 87.881821897 0 0.13207691946 0.23397783163 
0 31.043486258 0 0 0 0.36894002257 0 48.423102156 0 
0 0 -38.556782647 0 0 0 0 0 0.01024846517 
41.785136049 0 0 0 0 1.4821158024 0 0 0 
0 0 0 82.919429825 0 0 0 13.18726132 -40.591292181 
0 0 0 0 17.125434932 0 2.581127398 0 0 
0 14.709050954 0 0.96172570877 0.43234228329 0 29.407039204 0 0 
0.54520916568 0 0 0 0 0 0 0 0 
0 0 0 0 0 0 0 0 0 
0 0.026761950293 0 0 0 0 0 16.55013446 0 
0.074103298651 0 0 0.064788776738 0 0 0.75102866721 0 0 
19.523776689 0 7.0353777198 0 32.662924557 8.3575969115 0 0 0 
0 0 0 65.00962181 0 0 95.237817554 0 0 
0 0 0 72.331025229 0 0 0 72.851778525 0 
0.016811484099 40.440747492 0 0 0 0 0.20038009167 0 0 
31.282747228 0 0.039309006792 0 61.474948625 9.1873298829 0.069803019413 0.48380102831 0 
0.17056008502 6.2185180171 0 0 0 62.011745536 0 0 0 
0 0 0 0 0 0.91246544682 0 0 0 
0 0 0 0 0 0 0 0 93.81025062 
0 0 0 0 0 1.0073785713 0 0 0 
0 44.542589739 0 0.10689977826 0 0 18.051668211 0 3.2983146903 
0 0 15.535909362 0 72.230190467 0 17.430119478 33.886703419 63.446389725 
4.5465753145 3.4816439578 75.136324146 46.426779759 1.4900307608 0 94.239851883 0 0 
0 0 0 0 0 0 2.2731428118 2.516327021 0 
0 -39.911747175 0 0 0 0 0 0 72.227779829 
0 0.066230717163 0 56.173659639 0 0 0.045583251885 0 0 
0 0 0 0 5.0867204355 0 87.775049218 0 0.84167210069 
1.6120542053 0 75.828899355 -12.892503778 0 94.703851032 75.760394063 0 0 
0 0 0 0 40.366226343 0 41.780536252 0.0074342128387 0 
0 -8.0654136441 0 76.139103711 0 0 0 0 0 
0 0 0 0 0 0 0 0 0 
0 0 0 0 2.4147388122 0 0 0 0 
0 0 0 0.24553546414 57.300464884 0 0 7.5150890542 0 
60.858543164 7.4489363553e-205 2.7473195656e-205 0 0 53.830696435 0.20068323222 -8.1651557046 0 
2.4131295891 0 74.120700512 0 -39.417682721 0 69.925231906 9.9031567984 0.2205535773 
58.095665226 0 9.6490255164 0 0 85.963279528 0 0 0 
54.358441591 0 0 57.358046024 0.31463720005 0 0 -39.910000686 0 
0 0 0 0 9.4089975085e-220 2.0573228124 0 0 4.274199593 
0 0 83.108048569 0 0 0 0 0 0 
0 0 0 0 83.263976489 0.043119752377 0 93.889039067 0 
0 -25.018994482 0 0.11670940234 0 0 0 0 0 
0 0 0 0 0 0 93.992451843 26.094579772 0 
12.046562985 13.799858516 0 -21.91254438 12.857955086 0 -35.592144588 0 46.897683193 
0 0 0 18.546975619 0 0 62.666503086 0 0 
0 0 0 0 44.505365395 -17.464816604 42.577577356 0 47.907763977 
0 0 0 0 0 0 0 18.051183295 0 
0 0 0 0 37.278099808 0 23.556152318 0 0 
0 -24.812886226 27.253386079 0 0 0 0 0 0 
0 0 0 0 0 41.710852644 0 14.778892014 0 
0 0 0 0 0 0 0 0 0 
0 0 0 0 0 0 0 0 0 
0 0.53564544394 0 0 43.812544114 0 0 0 0 
0.020872888675 0 0 1.4891191388 91.912665107 72.426291217 0 0 0 
0 0 0 0 0 31.002327934 61.453412952 0 0 
0 0 0 83.517496322 16.100387426 0 0 0 39.045444868 
0 0 0 41.683302196 0 0 0 0 0 
0 0 4.4080837698 0 0 0 0 0 0 
-21.070735086 0 62.159993343 0 0 0 0 52.642026635 0 
0 0 0 0 1.7368130045e-163 4.350554627e-163 1.4479562736e-163 0 83.101371134 
32.65730767 0 0 0 0 6.8767368804 0 0 0 
0 87.823672846 0 15.093467429 0 0 0 25.087857028 28.309160717 
0 0 0 0 0 0 0 0 0 
0 0 0 0 0 20.069733071 -36.093575853 -40.514676472 0 
91.324935509 0.039174400415 0 18.564446158 0 0 0 0 0 
0 0 0 57.124213302 0 -19.268687743 0 53.257342784 0 
0 52.938836799 0 0 76.634048955 66.800565555 0 9.9304345305 0 
50.992090145 94.022034085 0 0 0 0 0 0 0 
0 0 19.088018102 0 0 0 0 0 92.955269903 
0 0 0 2.4638271006 0.083473279004 0 0 0 0 
0 0 0 0 0 0 -42.338212591 0 0 
0 0 4.7494333011e-186 0 0 19.868370189 0 0 0 
0 0 0 0 0 0 0 0 0 
0 0 0 0 0 0 0 0 0 
0 0 0 0 0 0 0 0 0 
0 0 0 0 0 0 0 0 0 
0 0 0 0 40.655824892 0 0 0 0 
0 0 0 0 0 5.7621676084e-119 0 0 0 
-11.686057451 31.038231863 0 0 0 0 0 82.142342228 0 
13.982347018 0 0 0 0 2.1904065799 0.014485212272 0 0 
0 0 1.4812277918 0 0 0 1.9103073711 0 0 
0 0 0 0 0 57.125816952 26.935734402 0 0 
0 37.979765893 0 84.723288234 0 0 0 0 27.655074626 
0 1.8601531275e-149 9.2085833909e-135 1.2102906353e-149 0 0 84.287762196 0 0 
86.105407477 93.749882851 7.7965669198 0 93.881588 0 0 0 0 
0 0 0 -39.410909624 1.6778783057e-198 1.2986727658e-198 8.5787485038e-199 1.466948618e-198 0 
-45.815218618 0 0 80.285778305 0 0.50843466869 -21.607451503 -9.676508729 0 
0 0 0 -46.566034192 0 2.2955329732 0 66.794977804 0 
0 0 74.852036564 0 0 0 84.284059212 0 0 
8.3624276984 0 0 3.2439793309 0 87.031250228 0 0 0 
0 0 0 0 0 0 0 -6.3807395311 0 
0 0 4.4123438661 0 0 0 0 35.25648109 0 
0 0 0 93.163552026 0 0 0 5.0052226148 0 
5.4850133301e-192 4.3012429845e-192 8.6987991488e-192 0 38.54655814 0.62486490793 0 0 0 
0 0 0 0 0 0 0 0 93.256048783 
38.917555851 0 0 87.050670636 35.539406117 0 63.437702567 0 0 
0 0 0 95.056550338 -8.7881699108 3.3362297684 0 1.2092221385e-168 0 
41.927109614 33.938907303 41.823869344 0 0 0 0 0 0 
0 0 0 0 0 0 0 41.749094755 87.97673456 
-25.946580275 69.040208995 1.9445467111 0 0 24.420040096 0 73.261514458 0 
0 0 -34.68219176 0 0 14.110009476 14.26021879 0 62.840444725 
11.638966342 0 0 -2.7810688883 0.59486208673 95.127583928 83.260411453 4.5063515182e-174 94.528188535 
0 0 0 55.345002001 0 0 2.261274152e-174 2.0138332277 1.3426366485 
0 0 0 0 0 0 0 0 0 
0 -34.248795174 0 5.3223447268e-132 47.909331033 0 0 0 0 
0 0 0 0 0 0 0 0 0 
0 19.688534908 0 0 1.8928735592 0 0 0 0 
0 -43.25936169 0 -39.815212753 51.695766239 87.440975326 0 0 0 
-25.202639414 0 0 93.680831431 0 3.7594134608 0 0 0 
0 0 29.159699075 0 0 0.80016348118 0 0 -47.820736689 
-43.443797555 0 0 0 0 20.726355712 0 0 0 
0 0 0 0 0 0 0 0 0 
0 0 61.519824074 0 0 0 58.087392323 96.76989311 0.96224921406 
0.0068895041307 0 0 0 0 0 0 0 4.041557106 
0 -45.914850958 0 -36.232418541 -35.195536373 0 0 0 0 
0 0 0 0 0 0 -33.515396223 0 0 
0 0 10.424658856 94.377312401 0 33.439727484 -41.901789762 27.673813163 0.65239198219 
7.2187607649 0 0 0.92297381855 0 0 0 32.649391885 0 
0 0 0 27.275387231 0.070371659595 0 24.319620368 0 0 
0.020745221562 0 78.805753717 95.232325117 0 3.218771132 20.051208462 0 0 
0 45.385208658 1.1319410747 91.405369345 62.006021622 28.628350029 0 0 0 
0 0 -44.629577212 90.45671971 0 0 0 70.220922962 0 
9.6900310159 6.1252606994 0 0 0 0 0 0 40.681208695 
0 46.419676634 0 0 0 0 0 0 0 
0 0 0 0 52.936790628 0 0 29.139844588 0 
0 0 0 0 4.244166058 -47.109251167 0 0.1519679764 0 
0 0 0 -40.124460241 93.731376259 0 0 19.483762951 -43.223199155 
0 0 0.016773892884 0 0 0 0 3.0216472836 46.439426028 
0 -9.689074773 -42.273502936 0 0 -22.031331341 0 0 0 
0 48.323054549 0 0 0 0 0 -23.013879605 0 
0 0 0 0 0 0 6.9290494719e-118 5.2973503309e-121 1.1743971808e-121 
9.2824931304e-127 0 32.635316283 0.11659002282 0 0 0 0 0 
0 0 0 6.3179130647 0 0 0 0 -36.332314655 
8.283725961 0 0 0 0 2.601311312e-205 3.8323489629e-121 8.7223860357e-120 2.0161201666 
75.835642669 0 0 0 0 0 -44.634355389 0 80.898754187 
0 0 0 0 0 0 0 7.1823501668 0 
0 0 -36.310203221 2.6273541326 -45.908930409 0 6.9048655614e-142 0 10.367795537 
0 0 0 0 -33.530706687 0 0 0.80085399527 0 
0 0 27.510552019 0 0 0 0 0 16.680941662 
0 0 0 0 -42.081978328 2.7474621239e-205 -39.268840789 0 0 
0 0 0 0 0 0 0 0 0 
0 0 0 0 -38.303885623 0 12.795174115 0 0 
49.754625105 0 8.6455882537 0 0 0 0 0 0 
0 0 0 0 0 0 0 0 42.391752797 
0 0 59.304742044 0 0 0 3.1075920244e-227 0 0 
0 58.364840418 0 0 96.177086118 0.33658270282 0 0 0 
0 0 0 0 0 0.33587539046 0 0 0 
0 0 0 0 0.24801640543 0 53.004171729 0 27.864630819 
5.5879906524e-154 3.9455642361e-145 0 5.1206614551e-227 0 4.0203207162e-227 6.0730645704e-154 6.252166856e-227 38.888456027 
21.589594928 0 0 0 0 0 0 0 0 
0 0 3.6586013907 0 0 0 0 0 0 
0 13.22203713 0 93.315736376 0 5.4947109837e-154 7.686348404e-146 0 45.157850268 
3.6647752176 0 0 0 0 0.13143256036 0 0 0 
-36.007528369 0 0 0 0 0 0 0 0 
0 0 0.015462518757 0 0 0 0 0 0 
0.084702980149 11.650627076 7.0588540006 0 0 0 57.587505267 84.061696097 -43.242020574 
-29.12189131 -34.257062818 0 1.1864613531e-163 0 0 95.076716878 0 21.118257662 
0 0 0 0.49776175537 0 0 0 -37.765130803 -14.653029652 
0 11.489015071 2.3389397925 0 0 0 73.657003364 88.194681725 0 
41.059362277 0 0 0 0 0 0 0.011397298087 0 
63.613374694 0 0 0 1.4269226798e-145 0 0 0 0 
86.782409378 40.977343232 0 0 -39.561218592 0 0 0 0 
0.28498262082 -6.3180854004 0.31552961503 0 0 -23.342683372 0 0 0 
67.509668004 0 0 0 0 0 0 0 0 
0 0 0 0 21.578465778 0 72.823368702 0 0 
0 22.239439905 40.793575379 0 0 0 81.901169757 72.069195479 0 
44.484859235 0 0 0 0 0 0 21.1390374 0 
0 0 0 0 0 71.982500764 0 0 0 
0 0 0.98194558718 0 0 0 0 0.060940941494 0 
0 0 0 0 0 95.099859231 0 0 0 
-4.722483685 -30.100512712 1.2092221385e-168 0 3.041724129e-138 2.3471013135e-138 3.1297298708e-138 8.9242754696e-142 0 
0 0 83.900729573 56.483754723 28.091951851 0 2.6003419775 0 0 
0 0 4.348336496 -24.710584852 0.081531887149 0 0 0 1.4493583675 
0 86.3856067 0 0 0 0 0 0 82.082852538 
0 0 0 0 89.984657246 0 0.0068909323372 71.052333777 51.683203881 
3.5962456235 0 0 38.502641233 -40.942519727 0 4.5183078282e-117 0 0 
0 0 0 0 0 0 0 0 40.442498908 
0.17037945277 0 0 0 0 0 0 0 0 
0 0 -6.9584333369 15.575264356 0 0 0 0 0 
0 0 0 -6.3605409925 82.539525363 0 0 0 52.921005095 
0 0 67.492217038 0.32785818366 77.28184603 0 0 87.421463642 93.607252483 
49.791219291 41.955491469 134.76309348 0 0 0 0 0 47.868187117 
-40.577050985 0.98693728486 9.0048639866e-142 0 0 5.1130933673 87.262875744 8.8142082147 9.9404097692 
0 0 0 0 0 0 0 0.015336679689 0 
0.96472107016 0 0 0 0 0 0 0 0 
0 0.60628062445 0 0 179.44420846 0 -41.594703403 0 0 
0 0 0 38.50238906 45.919387718 0 0 0 0 
0 1.8021220328 0 0 0 0 70.987585634 0 0 
0 2.3269427279 0 10.607396265 0 -31.247911493 1.062604152e-118 0 4.5952295992e-180 
1.1684450305e-116 0 0 8.9889712397e-180 5.6695293668e-121 0 0 0 58.767132404 
44.142061805 1.0086474925 0 0 0 -42.235091302 2.2754534527 0 0 
0 6.7320207797 12.199639427 0 0 -45.079084613 18.80387547 53.007027576 0 
0 0 0 0 0 0 0 -34.401903354 0 
0 0 0 0 0 0 0 0 0 
0 0 0 0 0 0 0 0 0 
0 -31.220067885 0 1.4422367451 0 0 0 0 0 
0 -25.218930406 -39.199429268 0 0 65.168398993 0.2226148962 59.055572576 0 
8.9889712397e-180 0 0 0 5.4489508847 8.6198398686 2.6296616759 93.555111881 29.234975312 
0 1.1206584354 0 0 0 0 0 0 0 
0 0 0 0 0 0 0 0 0 
0 0 0 0 0 0 0 0 0 
0 0 7.8487268855 0 0 0 0 0 0 
0 0 5.0403996955 0 0 0 0 0 0 
0 0 0 0 0 0 0 0 0 
0 0 1.6066218405 0 -14.93686275 0 0.21982743784 0 0 
0 0 0 0 0 0.060920841342 0 0 0 
0 0 0 0 0 0 0 0 0 
0 -39.178543654 0 0 0 0 0 0 87.950690466 
0 0 0 0.041087549027 0 0 0 0 0 
0 0 -11.63826244 0 0 0 0 3.4428183589 17.273007601 
17.281298653 3.4459954906 0.34928714745 72.05550673 0.066816388818 0 0 63.831139535 84.773165054 
0 0 0 0 0 0 0 0 0 
0 0 0 0 0 0 0 0 0 
-40.725418404 0 6.0835340943 0 0 0 0 0 0 
0 0 0 0 0 0 0 40.398255023 3.6207423361 
0 0 0 0 0 0 19.498512437 -37.544613878 313.38783137 
0 0 19.625305653 93.427803163 0 4.3994782269 77.151193155 8.9889712396e-180 2.4078190611e-212 
2.1153702807e-212 2.4078190611e-212 2.6307764133e-212 0 0 1.0082176915 19.202930577 38.374769945 74.82483211 
71.035273948 81.131291859 73.598831279 0 0 0 0 -5.0828988136 -39.477349309 
46.406990923 0 0 0 0 0 0 0 0 
0 -14.709136916 0 0 0 0 0 0 0 
0 0 0 0 0 0.14144914639 0 0 0 
0 0 0 0 0 -41.593509666 -32.452114692 0.91550478126 0 
0 0 0 0 3.3376567515 0 0 0 0 
0 0 0 0 0 0 0 76.555569165 0 
2.3409476286 9.6390989512 0 0 96.162145298 0 0 0 0 
0 0 0 0 0 38.884074925 0.03312258428 0.13040483631 0.24188461835 
0.26760434387 0.26761301994 9.5157361286 0.020991284356 0 0 0 0.072853410386 94.902306379 
67.440089908 182.47036336 0 0 0 0 -36.043789827 0 0 
0 0 8.2958018122 0.30245244495 33.853779302 -31.253321865 -42.560500154 25.765226435 0 
8.9889712397e-180 9.1244449985e-180 0 8.2972704359e-180 42.875337238 43.426639582 41.934493589 94.39437315 0 
0 40.83066769 3.637475873 0 0 0 0 0 0 
0 0 0 0 -6.7303710623 0 0 0 0 
33.149058688 0 0 0 0 0 0.31180175234 28.422711562 16.535009925 
2.6036099639 9.6058243508 -20.465465971 0 0 0 0 -38.361346044 0 
96.215437793 0 1.7267309827 0.14250103086 82.497054756 0 0 -18.328443089 0 
0 0 0 0 0 0 0 52.719445084 0.8152358267 
21.322693628 0.047084707875 0.96612157417 5.0459040704 0.33408131651 0.91340231188 0 0 0 
0 53.25855384 0 19.886685571 11.621602339 0 0 0 0 
0 0 0 0 0 0 0 0 1.8765431982 
0 0 0 0 0 0.50875489152 0 0 0 
0 0 -29.20342871 4.8525401795 0 37.011862775 0.020799654528 6.6150232348 0 
0 0 0 0 0 0 1.5807793913 0 55.047067492 
17.419724279 27.642039445 17.021241465 0 0 0 17.935923236 5.7679703391 -8.0793929871 
89.256969008 0 0 0 0 63.936519871 0 0 0 
0.049516848971 0.18267596025 4.0412291672 0.13043485904 0.072758406978 0.16252684116 0.020957873348 0.15493735235 3.100084048 
0.71820367983 70.214462944 0.049567911696 0 0.016769941563 0.12665265259 -24.677220434 0 94.112695061 
0 0 84.253458706 0 1.0424548009 5.1975201824 0 0.7168343088 2.7570428258e-129 
9.0128208941e-123 2.4184759026e-117 0 0 7.9667297073e-118 0 6.9290494719e-118 0 2.5950419273e-118 
0 0.81458027824 36.214539338 61.820436988 11.497946455 41.1468589 0.36842631545 0 0.11761278038 
0 14.721818775 -23.336803243 7.7835501242 0 0 -35.594459702 0 0 
0 0 0 0 0 0 0 0 0 
0 0 7.8207977745 0 0 0 -17.178354342 -35.296070375 0.015771132759 
0 -35.550129424 0 20.729270007 30.512595969 0 0 0 0 
0 0 0 0 12.15028058 0 0 0 -34.381080067 
0 27.245943541 46.956506696 33.148216547 4.8500967595 41.323753798 41.071097381 82.268429536 76.53709561 
0 0.14244800005 0 -36.501220458 -34.432150171 1.6091441004 1.8688381767 87.772900458 0 
-28.708449823 0 0 0 0 91.821571522 0 0 12.512118605 
4.3378390618 0 -45.520063286 0 14.286956264 1.062604152e-118 2.7570428258e-129 1.1370285667e-118 3.4612635704e-129 
9.3157428548e-169 1.062604152e-118 1.8890023514e-129 0 0.34899983721 4.471912397 9.9189314633 18.125405598 28.529168898 
10.069570926 39.892872254 16.091840697 50.840215453 60.314503868 67.734078825 72.927214053 41.673661924 75.957821579 
89.531224328 76.948368642 75.958403208 72.928782495 58.36822082 67.737279659 41.677898533 36.409139946 28.53896147 
9.9255973608 4.4758487145 1.557418471 33.181922025 12.45222162 16.991184071 5.6587035345 0.33994505033 0 
0 0 63.177066148 83.242493295 94.429170458 91.913241374 51.74495815 57.392794661 0 
0 0 -25.948558208 -24.6501917 0 0 0 0 0 
0 0 0 -34.038593724 -17.12493199 -42.283185237 -43.327909681 -42.344636766 21.217608697 
-39.731462362 42.571927494 0 19.071338017 0 0 0 0 31.015923509 
46.954815057 0 0 0 0 0 0 0 0.25564416504 
-33.937324325 88.722039293 0 -24.484272234 87.130413433 40.677694684 37.977040364 48.324572279 57.262157046 
1.7569019768 2.4494916867 3.0931534095 3.5941914366 3.8709757552 0 0 0 -37.661727877 
-43.658396183 10.897731313 0 0 0 13.134195731 0 0 3.8742615795 
0 0 0 0 74.614907464 0 0 57.679751496 55.365683678 
0.79804738668 21.645105204 0.010326859204 3.8669219293 0 0 0 0 292.54110317 
0 0 0 0.48352902439 0 0 12.815951851 33.509543919 25.901357975 
0 95.219624718 1.1399378822 5.5395802129 87.087520703 -34.562179783 52.348866532 1.6778783057e-198 0 
1.2092221385e-168 9.2824931304e-127 4.2487706365e-127 8.7130415138e-169 3.2903267409e-127 0 0 56.475280425 87.752442288 
53.448759577 23.62818374 83.289319578 53.0299921 0 0 -35.957326787 53.80667886 0 
0 -24.303187393 0 0 0 0 -43.946066694 0 4.5430831802 
-9.0941895493 0 0 0 2.4362499132 0 0 0 0 
6.4359970051 23.464946284 24.414479583 68.799488216 81.559000867 7.0573318003 1.8023541979 0 0 
0 0 87.066205709 82.946050797 0 0 48.205066794 196.73676791 -10.06054835 
0 0 72.846573248 0 -39.627396349 93.367108943 0 83.508161276 72.838747631 
32.6772956 0 0 -47.456072316 -43.965136569 -43.109831824 -41.666948661 7.8985515575 1.3238666642e-198 
0 6.0638445121e-135 5.252272944e-117 1.7044971609e-122 0 1.6778783057e-198 0 3.617349356e-198 0 
1.2102906353e-149 9.3821968339e-135 5.4502919794e-117 1.062604152e-118 6.2313637159e-135 0 0 0 12.836400529 
3.5870136685 21.701092894 0.15349856165 5.5444851886 10.133075641 64.320043348 59.306803071 93.742878536 88.890897653 
76.613523677 44.212267155 0 95.015533505 0 0 16.604559609 21.031696801 5.4151167549 
21.037190468 41.012263907 68.493049404 93.495920643 90.12404462 88.928249414 27.839919275 12.779158965 3.0880671037 
88.276468504 61.468691496 19.264934221 0 0 0 0 0 0 
0 0 0 0 0 0 0 0 -34.102307803 
0 0 3.5876364367 -38.856015779 -16.009746804 -41.678280125 9.8047567527 0 0 
0 0 0 14.758959623 52.925579428 0 0 0.96294670942 0 
0 0.019175967205 0 0 0.53583426417 3.7289236261 91.876620312 0 0 