# vtk DataFile Version 4.2
vtk output
ASCII
DATASET UNSTRUCTURED_GRID
POINTS 4342 double
-0.6 -0.6 0 0.6 -0.6 0 0.6 0.6 0 
-0.6 0.6 0 0 0 0 -0.58 -0.6 0 
-0.56 -0.6 0 -0.54 -0.6 0 -0.52 -0.6 0 
-0.5 -0.6 0 -0.48 -0.6 0 -0.46 -0.6 0 
-0.44 -0.6 0 -0.42 -0.6 0 -0.4 -0.6 0 
-0.38 -0.6 0 -0.36 -0.6 0 -0.34 -0.6 0 
-0.32 -0.6 0 -0.3 -0.6 0 -0.28 -0.6 0 
-0.26 -0.6 0 -0.24 -0.6 0 -0.22 -0.6 0 
-0.2 -0.6 0 -0.18 -0.6 0 -0.16 -0.6 0 
-0.14 -0.6 0 -0.12 -0.6 0 -0.1 -0.6 0 
-0.08 -0.6 0 -0.06 -0.6 0 -0.04 -0.6 0 
-0.02 -0.6 0 -8.881784197e-16 -0.6 0 0.02 -0.6 0 
0.04 -0.6 0 0.06 -0.6 0 0.08 -0.6 0 
0.1 -0.6 0 0.12 -0.6 0 0.14 -0.6 0 
0.16 -0.6 0 0.18 -0.6 0 0.2 -0.6 0 
0.22 -0.6 0 0.24 -0.6 0 0.26 -0.6 0 
0.28 -0.6 0 0.3 -0.6 0 0.32 -0.6 0 
0.34 -0.6 0 0.36 -0.6 0 0.38 -0.6 0 
0.4 -0.6 0 0.42 -0.6 0 0.44 -0.6 0 
0.46 -0.6 0 0.48 -0.6 0 0.5 -0.6 0 
0.52 -0.6 0 0.54 -0.6 0 0.56 -0.6 0 
0.58 -0.6 0 0.6 -0.58 0 0.6 -0.56 0 
0.6 -0.54 0 0.6 -0.52 0 0.6 -0.5 0 
0.6 -0.48 0 0.6 -0.46 0 0.6 -0.44 0 
0.6 -0.42 0 0.6 -0.4 0 0.6 -0.38 0 
0.6 -0.36 0 0.6 -0.34 0 0.6 -0.32 0 
0.6 -0.3 0 0.6 -0.28 0 0.6 -0.26 0 
0.6 -0.24 0 0.6 -0.22 0 0.6 -0.2 0 
0.6 -0.18 0 0.6 -0.16 0 0.6 -0.14 0 
0.6 -0.12 0 0.6 -0.1 0 0.6 -0.08 0 
0.6 -0.06 0 0.6 -0.04 0 0.6 -0.02 0 
0.6 -8.881784197e-16 0 0.6 0.02 0 0.6 0.04 0 
0.6 0.06 0 0.6 0.08 0 0.6 0.1 0 
0.6 0.12 0 0.6 0.14 0 0.6 0.16 0 
0.6 0.18 0 0.6 0.2 0 0.6 0.22 0 
0.6 0.24 0 0.6 0.26 0 0.6 0.28 0 
0.6 0.3 0 0.6 0.32 0 0.6 0.34 0 
0.6 0.36 0 0.6 0.38 0 0.6 0.4 0 
0.6 0.42 0 0.6 0.44 0 0.6 0.46 0 
0.6 0.48 0 0.6 0.5 0 0.6 0.52 0 
0.6 0.54 0 0.6 0.56 0 0.6 0.58 0 
0.58 0.6 0 0.56 0.6 0 0.54 0.6 0 
0.52 0.6 0 0.5 0.6 0 0.48 0.6 0 
0.46 0.6 0 0.44 0.6 0 0.42 0.6 0 
0.4 0.6 0 0.38 0.6 0 0.36 0.6 0 
0.34 0.6 0 0.32 0.6 0 0.3 0.6 0 
0.28 0.6 0 0.26 0.6 0 0.24 0.6 0 
0.22 0.6 0 0.2 0.6 0 0.18 0.6 0 
0.16 0.6 0 0.14 0.6 0 0.12 0.6 0 
0.1 0.6 0 0.08 0.6 0 0.06 0.6 0 
0.04 0.6 0 0.02 0.6 0 8.881784197e-16 0.6 0 
-0.02 0.6 0 -0.04 0.6 0 -0.06 0.6 0 
-0.08 0.6 0 -0.1 0.6 0 -0.12 0.6 0 
-0.14 0.6 0 -0.16 0.6 0 -0.18 0.6 0 
-0.2 0.6 0 -0.22 0.6 0 -0.24 0.6 0 
-0.26 0.6 0 -0.28 0.6 0 -0.3 0.6 0 
-0.32 0.6 0 -0.34 0.6 0 -0.36 0.6 0 
-0.38 0.6 0 -0.4 0.6 0 -0.42 0.6 0 
-0.44 0.6 0 -0.46 0.6 0 -0.48 0.6 0 
-0.5 0.6 0 -0.52 0.6 0 -0.54 0.6 0 
-0.56 0.6 0 -0.58 0.6 0 -0.6 0.58 0 
-0.6 0.56 0 -0.6 0.54 0 -0.6 0.52 0 
-0.6 0.5 0 -0.6 0.48 0 -0.6 0.46 0 
-0.6 0.44 0 -0.6 0.42 0 -0.6 0.4 0 
-0.6 0.38 0 -0.6 0.36 0 -0.6 0.34 0 
-0.6 0.32 0 -0.6 0.3 0 -0.6 0.28 0 
-0.6 0.26 0 -0.6 0.24 0 -0.6 0.22 0 
-0.6 0.2 0 -0.6 0.18 0 -0.6 0.16 0 
-0.6 0.14 0 -0.6 0.12 0 -0.6 0.1 0 
-0.6 0.08 0 -0.6 0.06 0 -0.6 0.04 0 
-0.6 0.02 0 -0.6 8.881784197e-16 0 -0.6 -0.02 0 
-0.6 -0.04 0 -0.6 -0.06 0 -0.6 -0.08 0 
-0.6 -0.1 0 -0.6 -0.12 0 -0.6 -0.14 0 
-0.6 -0.16 0 -0.6 -0.18 0 -0.6 -0.2 0 
-0.6 -0.22 0 -0.6 -0.24 0 -0.6 -0.26 0 
-0.6 -0.28 0 -0.6 -0.3 0 -0.6 -0.32 0 
-0.6 -0.34 0 -0.6 -0.36 0 -0.6 -0.38 0 
-0.6 -0.4 0 -0.6 -0.42 0 -0.6 -0.44 0 
-0.6 -0.46 0 -0.6 -0.48 0 -0.6 -0.5 0 
-0.6 -0.52 0 -0.6 -0.54 0 -0.6 -0.56 0 
-0.6 -0.58 0 0.25 -0.58267949192 0 -0.25 -0.58267949192 0 
-0.24969338163 0.58271630631 0 0.58313820224 0.25089999788 0 -0.58073798855 0.23055415423 0 
0.23 0.58267949192 0 0.5822727489 -0.23023532651 0 -0.58232885758 -0.22986293355 0 
-0.13 -0.58267949192 0 0.58091085312 0.12866705289 0 -0.13050081 0.58443309409 0 
0.13 -0.58267949192 0 0.11 0.58267949192 0 0.58128887437 -0.11185352307 0 
-0.58641004823 0.11046978504 0 -0.58097603768 -0.11235367818 0 -0.01 0.5841811861 0 
0.01 -0.58267949192 0 0.58217507245 0.011050809949 0 -0.58206506685 -0.010494327869 0 
0.58255589861 -0.33012459525 0 -0.58098267687 0.33246863147 0 0.33 0.58267949192 0 
-0.58090018381 -0.32734039494 0 0.35 -0.58267949192 0 0.58210978525 0.34851718814 0 
-0.34984356206 0.58269328777 0 -0.35 -0.58267949192 0 -0.58404031657 -0.41125547479 0 
0.58404031657 -0.41125547479 0 0.41 0.58267949192 0 -0.58127371569 0.40748932397 0 
0.43 -0.58267949192 0 0.58287041801 0.42966930632 0 -0.43030661837 0.58271630631 0 
-0.43 -0.58267949192 0 0.49 0.58267949192 0 0.58119455181 -0.49272606834 0 
-0.58196591894 0.48785347999 0 -0.58132747275 -0.49216380446 0 0.58099079541 0.19297246443 0 
-0.18926154554 0.58413656679 0 0.05 0.58267949192 0 0.19 -0.58267949192 0 
-0.07 -0.58267949192 0 0.58212565717 -0.051217328366 0 -0.07 0.58267949192 0 
0.58245912871 0.070013739955 0 0.07 -0.58267949192 0 0.58168449499 -0.17128271923 0 
-0.58574378526 0.05125913651 0 0.17050081 0.58443309409 0 -0.58168449499 -0.17128271923 0 
-0.58573295936 0.16883725031 0 -0.19 -0.58267949192 0 0.49 -0.58267949192 0 
-0.49050081 0.58443309409 0 0.58415322569 0.48921568047 0 -0.49 -0.58267949192 0 
0.53 -0.58267949192 0 0.58203286059 0.53119351335 0 -0.53 0.58267949192 0 
-0.58222913959 -0.53018403998 0 0.58202539473 0.28969699417 0 -0.29 0.58267949192 0 
-0.58451963751 -0.45057023735 0 -0.58267949192 -0.07 0 -0.29 -0.58267949192 0 
-0.03 -0.58267949192 0 0.39 -0.58267949192 0 0.58307204747 0.39068583015 0 
-0.39 0.58373814012 0 0.29 -0.58267949192 0 0.58208722445 -0.45065236781 0 
0.45042926572 0.58129593389 0 -0.58211115223 0.44955595746 0 -0.58432719917 -0.36932980655 0 
-0.58406793967 -0.26883049013 0 0.5820526686 -0.36901719046 0 0.37 0.58267949192 0 
-0.5823078615 0.36998422007 0 -0.39 -0.58267949192 0 -0.58211498987 0.271305057 0 
-0.53 -0.58267949192 0 0.58222913959 -0.53018403998 0 0.53 0.58373814012 0 
-0.58219774606 0.53090792334 0 0.58030324732 -0.28813008885 0 0.29050081 0.58443309409 0 
-0.58188605505 -0.56816348762 0 0.56922649731 -0.58312607391 0 0.58067979276 0.57009350437 0 
-0.57009384201 0.58146184644 0 0.54987108288 -0.58275392226 0 0.53997851381 -0.5653713889 0 
0.51999641897 -0.56536105136 0 0.52999582213 -0.54804088787 0 0.50999870685 -0.54803922237 0 
0.51999908816 -0.53071849415 0 0.4999996325 -0.53071817987 0 0.50999978678 -0.51339758273 0 
0.48999990321 -0.5133975155 0 0.49999994833 -0.49607698138 0 0.47999997526 -0.49607696583 0 
0.48999998726 -0.47875645082 0 0.46999999375 -0.47875644708 0 0.47999999684 -0.46143593722 0 
0.45999999843 -0.4614359363 0 0.46999999921 -0.44411542777 0 0.44999999961 -0.44411542755 0 
0.4599999998 -0.42679491936 0 0.4399999999 -0.4267949193 0 0.44999999995 -0.4094744112 0 
0.42999999998 -0.40947441118 0 0.43999999999 -0.3921539031 0 0.41999999999 -0.3921539031 0 
0.43 -0.37483339502 0 0.41 -0.37483339502 0 0.42 -0.35751288694 0 
0.4 -0.35751288694 0 0.41 -0.34019237886 0 0.39 -0.34019237886 0 
0.4 -0.32287187079 0 0.38 -0.32287187079 0 0.39 -0.30555136271 0 
0.37 -0.30555136271 0 0.38 -0.28823085464 0 0.36 -0.28823085464 0 
0.37 -0.27091034656 0 0.35 -0.27091034656 0 0.36 -0.25358983849 0 
0.34 -0.25358983849 0 0.35 -0.23626933041 0 0.33 -0.27091034656 0 
0.32 -0.25358983849 0 0.31 -0.27091034656 0 0.3 -0.25358983849 0 
0.29 -0.27091034656 0 0.28 -0.25358983849 0 0.27 -0.27091034656 0 
0.26 -0.25358983849 0 0.25 -0.27091034656 0 0.27 -0.23626933041 0 
0.24 -0.25358983849 0 0.23 -0.27091034656 0 0.22 -0.25358983849 0 
0.21 -0.27091034656 0 0.2 -0.25358983849 0 0.19 -0.27091034656 0 
0.18 -0.25358983849 0 0.17 -0.27091034656 0 0.19 -0.23626933041 0 
0.16 -0.25358983849 0 0.15 -0.27091034656 0 0.14 -0.25358983849 0 
0.13 -0.27091034656 0 0.12 -0.25358983849 0 0.11 -0.27091034656 0 
0.1 -0.25358983849 0 0.09 -0.27091034656 0 0.08 -0.25358983849 0 
0.07 -0.27091034656 0 0.06 -0.25358983849 0 0.05 -0.27091034656 0 
0.04 -0.25358983849 0 0.03 -0.27091034656 0 0.02 -0.25358983849 0 
0.01 -0.27091034656 0 -1.7474921972e-14 -0.25358983849 0 -0.01 -0.27091034656 0 
-0.02 -0.25358983849 0 -0.03 -0.27091034656 0 -0.04 -0.25358983849 0 
-0.05 -0.27091034656 0 -0.06 -0.25358983849 0 -0.07 -0.27091034656 0 
-0.08 -0.25358983849 0 -0.09 -0.27091034656 0 -0.1 -0.25358983849 0 
-0.11 -0.27091034656 0 -0.12 -0.25358983849 0 -0.13 -0.27091034656 0 
-0.14 -0.25358983849 0 -0.15 -0.27091034656 0 -0.16 -0.25358983849 0 
-0.17 -0.27091034656 0 -0.18 -0.25358983849 0 -0.19 -0.27091034656 0 
-0.2 -0.25358983849 0 -0.21 -0.27091034656 0 -0.22 -0.25358983849 0 
-0.21 -0.23626933041 0 -0.23 -0.23626933041 0 -0.22 -0.21894882233 0 
-0.23 -0.27091034656 0 -0.24 -0.21894882233 0 -0.23 -0.20162831426 0 
-0.25 -0.20162831426 0 -0.24 -0.18430780618 0 -0.26 -0.18430780618 0 
-0.25 -0.16698729811 0 -0.27 -0.16698729811 0 -0.26 -0.14966679003 0 
-0.27 -0.20162831426 0 -0.28 -0.14966679003 0 -0.27 -0.13234628196 0 
-0.29 -0.13234628196 0 -0.28 -0.11502577388 0 -0.3 -0.11502577388 0 
-0.29 -0.097705265805 0 0.22 -0.28823085464 0 0.1 -0.28823085464 0 
-0.1 -0.28823085464 0 -0.22 -0.28823085464 0 -0.24 -0.28823085464 0 
0.02 -0.28823085464 0 -0.31 -0.13234628196 0 -0.31 -0.097705265805 0 
-0.3 -0.080384757729 0 -0.28 -0.080384757729 0 -0.29 -0.063064249654 0 
-0.31 -0.063064249654 0 -0.3 -0.045743741578 0 -0.28 -0.045743741578 0 
-0.29 -0.028423233502 0 -0.27 -0.028423233502 0 -0.28 -0.011102725427 0 
-0.3 -0.011102725427 0 -0.29 0.0062177826491 0 -0.27 0.0062177826491 0 
-0.28 0.023538290725 0 -0.26 0.023538290725 0 -0.27 0.0408587988 0 
-0.25 0.0408587988 0 -0.26 0.058179306876 0 -0.24 0.058179306876 0 
-0.25 0.075499814952 0 -0.23 0.075499814952 0 -0.24 0.092820323028 0 
-0.22 0.092820323028 0 -0.23 0.1101408311 0 -0.21 0.1101408311 0 
-0.22 0.12746133918 0 -0.2 0.12746133918 0 -0.21 0.14478184725 0 
-0.19 0.14478184725 0 -0.2 0.16210235533 0 -0.18 0.16210235533 0 
-0.19 0.17942286341 0 -0.17 0.17942286341 0 -0.21 0.17942286341 0 
-0.2 0.19674337148 0 -0.22 0.19674337148 0 -0.21 0.21406387956 0 
-0.23 0.21406387956 0 -0.22 0.23138438763 0 -0.24 0.23138438763 0 
-0.23 0.24870489571 0 -0.21 0.24870489571 0 -0.25 0.24870489571 0 
-0.27 0.075499814952 0 -0.22 0.26602540378 0 -0.2 0.26602540378 0 
-0.21 0.28334591186 0 -0.19 0.28334591186 0 -0.31 0.0062177826491 0 
-0.23 -0.16698729811 0 0.11 -0.23626933041 0 -0.2 0.30066641994 0 
-0.18 0.30066641994 0 -0.23 -0.30555136271 0 -0.25 -0.30555136271 0 
0.39 -0.37483339502 0 -0.09 -0.23626933041 0 -0.19 0.31798692801 0 
[...]
CELL_DATA 8442
FIELD FieldData 1
flux 1 8442 double
2.3535624856e-06 0.0029540978451 0.018513231631 0.18640490543 0.050182643412 2.6170233199e-06 0.079104101469 0.029869305573 0.32221709676 
0.040616447848 0.0019885543367 0.00084032204633 0.073358690088 0.074244489775 1.4569794285e-07 0.0022714212084 4.2782203876e-05 0.40217746026 
0.00029875254557 0.060277393042 0.073676248534 1.4466351866e-07 1.3377446498e-06 4.5112565058e-06 0.0041453955059 1.3078315183e-06 8.682409349e-06 
0.0047054016239 0.000921969142 0.030943622131 0.0006908188994 6.4528685713e-05 0.071643188097 0.069939298432 0.062180168339 0.10622026621 
0.10618401465 0.04807132947 0.04592917312 0.046287303766 0.0050834289256 9.3288195482e-08 9.782498876e-05 0.63431327285 0.021316144367 
0.013218012399 0.015461825023 3.5475627118e-07 3.5056438007e-07 0.00025517971405 0.0091434942545 0.00058597207232 6.5070903044e-07 6.3471467226e-07 
0.00022717077278 0.02682930333 0.00014303639329 0.10371487337 0.058341085209 0.056867893816 0.074805003653 5.1149146228e-09 0.049821001336 
0.063877024979 9.8284809984e-06 0.0014299985761 3.4560635939e-05 3.9735081247e-08 0.012711317457 0.052999195788 0.049959069094 9.2513258113e-06 
0.0086361042904 0.017983249018 0.0034897654783 3.0067331563e-06 0.048176148629 0.5349663738 0.072532006345 0.073458241239 0.077315581481 
0.060742621282 1.5298988703e-06 0.022281870264 0.013040152281 0.068869927433 0.091098233264 2.4846008227e-07 2.4982480117e-07 0.034267613683 
0.034557211408 0.0055408317071 0.12858367367 6.6594882744e-05 6.5171972172e-05 0.046568606399 0.15595499296 0.043173457456 0.042987461193 
0.0011120722475 4.3652513971e-09 0.0035853461377 0.013076137321 0.0096681145743 1.8746799384e-05 0.012754203309 0.00033143409511 0.062951913957 
5.9739830566e-07 5.9166412767e-07 9.2681055372e-08 0.00014723401051 1.7784728842e-06 1.7166710522e-06 4.1627049249e-06 2.0929718398e-05 0.36199641906 
0.046044350764 0.089311022418 0.089811940092 0.58185965643 0.0017534611662 0.67769369502 0.061528606824 0.062095610825 0.10534068684 
0.054883691508 0.054735615421 0.042312420145 0.087655493682 0.0067647727641 0.033538698988 3.6030005515e-08 0.00062731540963 0.047521132188 
0.0003346558349 3.9180847653e-06 3.5615889852e-05 3.4753327146e-05 0.0012686170157 0.049788100152 4.1526433258 4.1511594849 0.19923653823 
0.063091705052 0.06289911008 1.0939760606e-07 0.0019314684717 0.10009188021 0.0097201507775 0.73828728349 0.00012910163681 0.00026202865118 
8.6930063088e-07 8.6503873816e-07 7.228543296e-07 1.0985984134e-06 0.035145181754 0.031233863201 0.00012037918926 0.0001276518425 0.089052960197 
1.4846421878e-06 1.4993749618e-06 0.0095116768981 3.4535455688e-05 2.8333874821e-06 0.0018696000322 0.064078246558 0.41665178677 5.5159647919e-06 
0.014955232732 0.10574925432 4.1679798454 4.1683026401 3.4036584374e-06 4.1715280277 4.1696176224 0.044765396675 3.3661784117e-06 
0.00017456705982 0.049948447372 0.049459591153 2.4474453752e-08 0.41748728704 0.0017392978265 1.224447553e-08 0.00081367099216 3.6283699166e-05 
7.6109508508e-06 1.1164024464e-07 1.1120183558e-07 0.00031730085651 7.3787796049e-06 1.5511603063e-05 0.00019878191485 0.0010170934156 0.0080819060825 
2.4215382273e-05 0.038669457821 0.001683473017 0.0030748617717 0.10982068678 0.089199445187 0.079173606912 0.1062252662 0.12448065922 
0.21340726309 0.10191412443 0.051958122123 0.033128308148 0.22511284214 0.018746475544 0.10255494759 0.070140994825 0.027408214858 
0.14508227842 0.044203664976 0.00010697398183 0.131453942 4.3340449998e-06 1.1393952319e-05 1.2021766096e-05 7.3466609281e-05 1.711507466e-05 
0.0031201709695 0.022044175271 0.93228754465 1.5178285331 1.504030906 0.94625568532 1.6282758917 0.40123389311 1.6175967169 
0.0029902961226 0.022730107513 0.20397575804 0.42490186725 0.5392269306 1.4307901272 1.2835957766 1.476879854 1.2025734187 
1.445033054 1.4826784103 1.0894874565 0.14349060107 1.2729357101 0.007368198023 1.3111065772 0.0347432223 1.1829966162 
0.68922924618 0.0044837611083 0.54982155636 0.19313651365 0.93271768553 0.27282456949 0.011921209256 0.0017431146382 0.74707993071 
3.184304286e-05 1.1240281366 1.1388212768 0.73105893462 0.48807550758 0.12500911255 1.0061788658 0.33126870929 0.93139390219 
0.88990346793 0.048167298954 0.86347784251 0.99627332983 0.33998014957 1.1548285658 0.90675168358 0.014035949419 1.4431898962e-06 
6.4972137342e-07 1.2358344335 0.052883091109 0.070094770755 1.0998507861 0.89758525311 1.2661926082 0.0021943586943 1.3146519372 
1.2580165404 0.70403909191 0.29703505466 1.2723031248 1.5892432612 0.10381999714 1.6529615621 0.65275449826 0.87693821803 
1.613337005 0.89758265157 1.2917462909 3.4361225157e-06 1.6507960629 0.64545699008 1.1705465566 1.6284676548 1.0923732966 
1.4079911742 0.36316348054 0.27923502682 0.0034347721681 1.4267520064 0.26740269788 0.47211355952 0.1366494647 0.90287561191 
0.3163857574 0.68089889772 1.2401489422 1.7903927232 0.88090714174 0.76654811325 0.445806023 1.4825016671 1.5612263766 
0.39689320309 1.3126633576 0.97860435795 1.4451711075 1.5189199215 0.17087905356 1.4322953375 1.0840775688 0.27739717762 
0.53291856577 1.6849597705 0.7638165045 1.295532951 1.2578945924 1.6149043495 1.5889244802 0.26530099204 1.2538188253 
0.52148499253 1.0755810331 1.2638371627 0.78381900024 1.0696971215 1.3324609445 1.4062040067 0.98036336153 6.1099420989e-07 
0.83782077458 1.3008219295 0.87306223782 0.0083722849338 1.2773302061 1.2320475815 0.92740828558 0.8583464005 0.1912525568 
1.1775070598 0.87499685385 1.3590989672 0.040558833278 1.1386891782 1.4812809323 1.2149051421 1.0939106489 0.15043696769 
1.0543426872 0.17517061675 0.33134836956 1.2312557007 1.6009107367 1.2911594861 1.2946588856 0.66951150245 0.99917946802 
0.23794648388 1.0568476164 0.09515976849 0.00098544216756 1.4415413093 0.9823405546 1.079601648 0.96063868822 0.87413451527 
1.4230134222 0.51567267145 0.0044734453419 0.96323391022 1.0383291347 1.3823126392 0.59249920277 1.3165505697 0.00026546566154 
0.22554384734 0.72394992429 0.50543434953 1.2634354964 1.0061825072 1.2868134078 1.0264654688 0.0037215939009 0.98391542034 
1.2474832627 0.0028500702133 0.83706818381 0.51444292019 1.087624595 1.1873374618 1.2485267228 0.2006577164 1.2739704117 
0.80315127105 1.8894571929 1.3983827046 0.4457299058 0.28674390085 1.4097395789 1.2838217407 1.4917453379 1.2991703047 
0.0055867867149 0.79832647385 0.86890673572 0.96659717219 1.3130420594 1.4808578224 0.7612286823 0.30227205529 0.12593321728 
1.0835181658 0.0034144675738 0.85631083796 0.2784881832 0.70569066857 1.3210989744 0.56520227071 0.005494695709 0.071732228058 
0.2708420406 0.92168510417 1.3618686731 0.75817667482 0.67921871159 0.00066371374421 1.5824739463 1.1716948914 0.93565293217 
0.36922236442 0.0055313047561 1.3579498668 1.065635195 2.4031613338e-07 0.7711503258 1.0341113512 1.0924797205 0.28124526089 
1.5273737809 0.76215464563 1.459503998 1.3005256519 0.72885509328 0.86189481109 1.2595815186 0.08649226266 1.0225306538 
0.71881788382 0.89761588045 0.78457437215 0.22330302689 1.6402623039 0.29447768996 1.2814056187 1.4811809584 1.0246618434 
0.90959729304 1.2122818169 2.1287913231 0.0066594366985 0.11611168953 0.71198670189 1.0179377708 0.72082488136 0.07447868424 
1.3682479557 1.0623602186 0.66510654367 1.6524142503 0.96656453167 1.1926465434 0.00098354889949 0.83116165174 0.006225206884 
1.2978978318 0.00042911001433 0.71932851202 1.3435379021 1.1379609939 0.076707244978 1.3914476244 1.1147328823 1.4244681831 
1.5209420604e-06 0.83715836335 0.88533534516 0.085162320063 0.74670573757 0.73485452795 1.2946982984 0.71240530817 1.0593391746 
0.019951685651 0.94706976508 0.68900060699 1.3480154014 1.0006066786 0.83034311394 1.2754748046 0.010479974379 0.24016701688 
0.80104849493 1.1815258059 1.1444011803 1.2649121831 0.72745807472 1.4722399554 1.2934378433 0.023770873062 1.3608292149 
0.062675911385 1.6507092566 0.77090751583 1.4225438742 1.2690932273 1.5694996069 1.9169701189 1.6130395346 1.6283321549 
1.7441245099 0.83860730929 0.70580172422 0.86617169691 1.249180715 0.24219717969 1.6078896757 0.00046065234833 1.3212786568 
0.22045303476 1.474739569 1.1729114612 1.1238879629 0.84616081107 0.22595321974 0.034861371699 0.22602782423 1.2094862027 
0.71490457026 1.0540843253 0.49243971328 1.1866033708 1.2471418511 0.0028344021506 0.71386440067 0.13525512692 0.94766409239 
0.00047534626771 0.89440150496 0.55475503978 0.83691446113 0.91288706155 0.73876428279 1.4321272784 0.00077635021963 1.6176189346 
0.31456207532 1.0957290342 0.90757451969 0.0019798017081 1.1211942543 0.28137586909 1.9532734296e-07 1.3981643565 1.7793097776 
0.35022576504 1.347071326 1.131459309 1.1161961664 1.4951794327 1.1340721438 0.07707617401 0.90987656554 1.4307373353 
1.242214782 1.4736442375 0.52011690321 0.78337371367 0.5932231045 1.1491758233 0.00034275086991 0.29177162948 0.044037974931 
1.5709038601 0.83729653797 0.8245353708 1.5345116629e-05 0.00022597328903 1.2630791092 0.15695397352 1.2052687135 1.5314479939 
0.46126177522 1.3013637602 1.1481172424 0.5483693013 0.12031290852 1.2284074679 1.4445901097 0.92310454705 1.6407855108 
1.2316615883 1.6298975156 1.4764370219 1.2725989805 0.0015569809801 0.0012792095938 1.0314653128 1.1568896628 1.5181249214 
1.2830916125 1.1109494134 1.3995046459 1.0199183641 0.12686369531 0.9484170498 0.00024586880718 0.92986328653 0.0021559623429 
1.0670947631 1.1170921332 0.96932737473 1.2882820583 0.18210269896 0.23199163839 1.0936835468 0.77313747222 0.7483304289 
1.2233767898 0.19124346633 0.17675562222 1.3712070767 0.83529169412 0.80161369478 1.308501468 0.91705566188 0.017059520945 
0.11793924605 0.85011401818 0.010317218347 0.89343504038 1.4861960638 1.0237060985 0.6303720831 0.0022042914645 1.6827042894 
0.20025208625 1.3414170386 1.586051779 0.21347303989 0.77702139316 0.82615298582 0.34183146432 0.038869865084 1.0732946586 
0.15132150473 1.4864859659 0.77205257808 0.84560429216 0.85050264959 0.60515514839 5.7985008533e-05 1.296663278 0.35810771735 
0.80266114556 0.96552666246 0.52870212022 1.2262868616 0.1995375924 1.2124857332 0.0062200375462 0.8168174409 0.78651842394 
0.66246620849 0.97174990425 0.0037247015309 0.74189982111 0.87542456314 1.0825250361 1.6101403879 0.37758069899 0.11681728727 
1.2105197092 0.31075979879 0.75130175697 0.86882497943 0.71319261849 0.8593559629 1.2651558279 1.4011570454 1.6451186923 
1.0825714093 1.333490272 0.0057698089045 1.6831439164 0.73077281337 1.0071319911 0.8497134562 0.00046285804201 0.98773583726 
1.6918780994 0.8085940606 0.050332216547 1.1825352932 0.0063000360237 0.10990784596 1.1797180978 0.76059097945 0.83151961355 
1.3377142636 0.80023370763 0.033146053205 0.10767691087 9.1213282317e-07 7.7348223983e-08 1.4770357357 0.078154166817 0.74864535251 
0.84767839984 1.3799967763 0.75106681288 1.2463381157 1.6525652709 1.0264975076 1.6101649939 1.5120611476 1.0436566276 
0.024873796182 1.2966174038 1.2906565228 1.1593242062 0.87546381151 0.99626315977 1.3677401116 0.015575416717 0.82092243207 
1.6522439164 0.086381443123 1.5233798545 1.1035697473e-07 0.84576657292 0.55912994763 0.024143206973 0.93055002386 0.0034097067899 
0.82059283995 1.0261120017 1.2680806565 0.81081231561 1.1851142628 1.1034382095 1.5597337497 0.088853780812 0.90600608726 
1.0559235315 0.73896143999 1.739061488 0.049306044063 0.95550563854 0.57287500769 0.9655167442 0.5703693438 0.11507257334 
0.96945242072 0.37688387606 0.43455180636 0.032164140031 0.85825928848 0.78419707621 0.88506612559 1.6123039836 1.4827604605 
0.0073712511215 1.089595038 0.43580740879 0.70957113589 1.4157343564 1.3244865494 1.0124689261 1.500503649 0.31633359414 
0.0027418776749 0.0010968862907 0.8209600902 1.1812042598 1.3073921909 0.0018379086547 0.71215475359 0.93637509034 1.3983935141 
1.5656899446 0.90608328296 8.9660465113e-05 1.2021219127 0.74826856225 1.2284438509 0.088924737201 1.3709291482 0.092625567886 
0.021722111783 0.00034946755151 0.00063105188196 1.6265377435 0.014674368901 0.27315654747 1.4916922734 1.3204064357 0.93883927643 
0.43486146614 1.3683998751 0.86514493239 1.6516375063 0.8597261199 0.00016555437042 1.2064963117 1.2739453045 0.00024257206351 
0.059313395866 0.94316927974 1.0127538113 1.3892767945 1.0457822183 5.1200982528e-07 0.88850212508 0.52870536345 1.216281256 
0.90810729068 0.15669983113 1.4210144543 1.4139753051 1.0057999205 0.65685642021 0.31502001139 0.023307200879 0.14609198219 
0.90870267008 0.069240698724 0.31104346457 0.79258882995 0.057978438964 0.54951490155 0.00076031234196 0.020372324535 0.017685944237 
0.70488124781 1.3363307531 0.0003498837369 0.24222459749 1.0391663701 1.4449946657 0.89744137653 0.80778643027 0.85329066825 
1.2690343011 1.3075173244 1.4110576707 0.68564162507 1.402781809 1.3537630865 1.174014974 1.3963778841 0.1395893547 
1.0893713176 0.01192580135 1.2792031291 1.749110662 0.86902993877 0.87122506148 1.6095151422 1.1698576613 0.0016492439238 
0.015178692859 1.2244640837 1.2056323021 1.820928599 0.12688678721 0.007574296773 0.78217342493 0.0021575435654 1.3577037586 
0.10999391339 0.1531560683 7.5388755921e-07 0.87779060804 1.7509786895 7.6735172742e-06 0.05229274755 0.83838843709 0.3489486103 
1.4785065745 1.0080807946 0.7446188835 0.0012103229877 1.7107914426e-05 0.0012113295082 1.31006681 0.00047325638171 1.3108038386 
0.8607588871 1.6155053843 0.90002536671 1.0763257924 0.72679998585 0.95349850915 0.74761632889 0.93279725318 0.68912287822 
1.2011850476 1.0670507695 0.83271969941 0.0036484598611 0.56178694563 0.92587666619 0.000739622711 1.4462339946 0.35181514303 
0.00046043134681 0.20670260807 0.0095253668225 0.0032681299099 1.6360525499 0.88605328839 1.16384085 0.59020378561 0.32564671126 
0.028399729304 0.46586809456 0.12598278805 0.064739194224 0.74558594071 0.61431630452 0.095106331904 0.1716534953 0.79809714709 
0.85646123219 0.36800691201 0.078560996641 0.29910298501 0.004433607376 0.73404545648 0.00026658743975 1.0208501522 0.24229897961 
0.90842515039 1.1276645229 0.53684270457 1.0540958072 1.9585635518 0.14317638244 0.86228513629 0.031477737662 1.1707448618 
1.2314122235 0.0028217155609 1.0028839696 1.6450873222 1.5085303853 1.151914163 0.7624251392 1.4333377667 1.9540540728 
1.3055444359 1.4244126996 1.1277882166 0.85183220104 1.4749186254 0.13973676529 0.83153715298 0.69931100146 0.27632894306 
1.1088192972 0.0005445923192 0.9514335836 1.0768606326 0.2089577418 0.20677824004 0.88362933487 0.82114646162 0.0015851807437 
0.10726497191 0.78523256635 0.86968965962 1.6908995211 0.086570175729 0.33347263594 1.1915149736 0.095003539611 1.5084925275 
0.00024245722391 1.3466863518 0.47241213815 0.84308919989 0.60213831143 0.00066443264104 0.8205008419 1.5822600909 1.4708979348 
0.54975124351 0.27805267815 0.89176487429 0.1213772471 1.2127496962 1.4823978694 0.7803276907 0.12725140731 1.4412658034 
0.94028304597 1.2182288335 1.3504558219 0.83491616906 0.0041387253455 0.78535809384 0.91708706372 1.1211141545 0.62481128339 
1.0301647962 0.97967716647 1.3918572429 0.65026075345 0.8974463417 0.00011645197322 1.565771888 1.044289192 0.46742004986 
0.29901104123 0.75563127038 0.63262305446 0.92193815348 0.53247258431 0.2686771798 0.051874808955 1.5045390919 0.001147010127 
0.027020615101 0.55540161995 0.0050530034186 0.71709077097 0.64004434328 0.31293359341 0.00086464598548 0.023739269799 0.03669728539 
0.008488148868 0.00097193657585 1.1938576614 1.9172806255 1.3926376495 0.74189293814 1.1975382146 0.99619422117 1.6816210601 
1.3621345643 1.3803875571 0.11771828209 0.82522649353 0.89190983494 0.0016181931447 0.18191836767 1.1494972167 0.75102360623 
1.1088634608 1.0516000175e-07 1.3142628769e-06 0.21781846699 1.256535729 0.83472705276 1.3105993153 0.84560126848 1.0889491271 
1.392536037 1.1364651005 1.1318390505 0.5898973796 0.80702646618 0.47548617381 0.84369128595 0.75159959232 0.8685400986 
0.91263321939 0.57711965271 0.79025414117 0.52139095955 0.79975334296 1.4061637009 0.55802489439 1.5992854873 0.17559745176 
1.3417667075 1.5890325593 0.84030049064 0.88456809266 1.0285248829 0.27785950334 0.75167721307 0.78542301768 0.54932572029 
0.8764042438 0.8763698263 0.055276870596 1.354880098 5.756221081e-08 1.0142128777 0.46538598966 0.55917978251 1.0170815932 
0.98909352746 1.5593784378 0.80909418181 0.75342938799 1.0891860871 0.99768560942 0.27960241708 0.49809742375 0.42220912961 
0.016168998564 0.59597760813 0.14095479678 0.010062825155 0.73440632316 1.4825358532 0.0043809240357 1.2179893604 0.86785834635 
1.3686010896 0.82598267493 1.5316543233 1.4003963882 4.3069321017e-05 0.00029865913962 0.49800446739 0.0003357006029 1.126031698 
0.8093076413 0.049182482895 0.82268000668 1.0029314185 0.32279710867 0.54274079495 0.78640994196 1.2670124143 0.037449765093 
1.0540343377 1.2356661579 0.10756230435 0.75643888067 0.83802724894 0.0005553298885 0.91361133571 0.02841998865 1.2673236508 
1.2441772225 0.66547281087 0.020808111248 1.145258988 0.54355411212 0.70542408894 2.1313522969 2.9787047949e-06 1.9206334168 
1.4251514252 0.27566760301 1.277846096 0.024759735043 0.87348904448 1.0769429224 0.89496420671 0.90445613606 0.95385942709 
0.71775124403 0.79683582886 1.3452287375 0.97274312406 1.650932777 0.58150573308 0.71209558823 0.86219488914 1.2505015872 
0.70030420848 0.89801140248 1.200988053 0.20339158134 0.89638819232 0.038512982539 1.1353371174 0.35894508323 0.14596487305 
0.16578228762 0.85498248689 0.79928274179 0.9584179583 1.1077432456 0.50827451557 0.00054195789492 1.486451399 1.8092877698e-05 
1.5522276694 0.81524790877 0.71209551739 0.64956364558 0.63846443244 0.71872188019 0.91119168857 1.0100070194 0.52128262316 
0.096121824989 0.18959755191 0.11942903646 0.77377106802 0.65457667068 1.355586033 0.47208055325 0.17669344016 0.24645005922 
0.034491879491 0.40330750395 1.1487852921 1.1441979507 0.61473959494 0.60077286108 0.00012956244017 0.0016170074344 0.1453960987 
0.90421591756 1.5887816537 1.3004800083 2.3040103349e-06 1.1989678159 1.4136613718 0.16623688205 0.013367111755 1.2610727304 
1.214426549 0.074944152111 1.317753688 1.4750149437 1.3047766108 1.0238528983 0.040820917555 0.010100870098 1.2281588205e-05 
0.558913242 1.7473471975 2.082171641 0.86971352651 0.315144162 0.9229315649 0.90348791265 0.2501681466 0.28722260926 
0.44352981103 0.31718874871 0.45010642552 0.77735051377 0.89357427505 0.011594590364 0.71375076305 0.019569836595 1.0543103756 
0.25297753636 1.1619536252 0.44657359766 1.0297551275 1.6229255322 0.0019980047824 1.1099235443 0.82439226725 0.17948377477 
1.6030701933 0.57963616257 0.95125786822 0.74403497222 2.1386247918 0.34039306272 1.4079796614 0.12826456987 0.2077331938 
0.71042003729 0.80322451599 0.81189541424 0.77909433934 0.96800670215 0.88344419539 0.19796122233 1.2636138494 0.054199985067 
0.00015259908335 1.3085219909 0.49479041766 0.0025470812075 0.0004249247896 7.3337021842e-05 0.00032851212656 0.03664529485 1.7343622315 
1.0076807259 0.00070908296222 0.13246471359 0.24071872361 0.64183835818 1.1625451724 0.030601944649 2.969448295e-06 0.022987332947 
2.1843348461 0.79031223875 0.083996762017 1.1251166906 0.68852139315 0.87674583522 0.30981099186 1.0406143917 0.84569457629 
0.014303126971 0.034580740126 0.0034333073075 1.2050358414 2.0498774777 1.2526285278 0.10944333693 2.1423666676 0.20490805902 
0.0083652621006 0.090126394912 0.040434044837 0.17566685525 1.0109176304 0.74590478419 1.0704891004 1.1627708114 4.4120901877e-06 
0.87313658261 1.0097395478 1.1849645863 1.1448896902 0.019174963416 1.50237802 0.038802643358 0.6881212956 0.24008832967 
0.97497721393 0.00052663529577 0.00013484067846 0.77043524599 0.21008393267 0.75463586652 0.45949578829 1.3987036458 1.0806065106 
0.19220838954 0.82683003516 1.1463362558 0.36497294223 0.83367418618 0.86518249863 0.0010188400293 1.2201170003 1.0080287495 
1.4515398716 1.4941815248 0.054246757746 0.83472817124 0.040768919031 0.22132772521 0.44803220998 0.76026316787 0.00019308955983 
0.47340301687 0.19984559407 1.1666445667 0.97547594577 0.24032209602 1.6232503652 0.0014152809899 0.11807413786 0.7580931697 