# vtk DataFile Version 4.2
vtk output
ASCII
DATASET UNSTRUCTURED_GRID
POINTS 4342 double
-0.6 -0.6 0 0.6 -0.6 0 0.6 0.6 0 
-0.6 0.6 0 0 0 0 -0.58 -0.6 0 
-0.56 -0.6 0 -0.54 -0.6 0 -0.52 -0.6 0 
-0.5 -0.6 0 -0.48 -0.6 0 -0.46 -0.6 0 
-0.44 -0.6 0 -0.42 -0.6 0 -0.4 -0.6 0 
-0.38 -0.6 0 -0.36 -0.6 0 -0.34 -0.6 0 
-0.32 -0.6 0 -0.3 -0.6 0 -0.28 -0.6 0 
-0.26 -0.6 0 -0.24 -0.6 0 -0.22 -0.6 0 
-0.2 -0.6 0 -0.18 -0.6 0 -0.16 -0.6 0 
-0.14 -0.6 0 -0.12 -0.6 0 -0.1 -0.6 0 
-0.08 -0.6 0 -0.06 -0.6 0 -0.04 -0.6 0 
-0.02 -0.6 0 -8.881784197e-16 -0.6 0 0.02 -0.6 0 
0.04 -0.6 0 0.06 -0.6 0 0.08 -0.6 0 
0.1 -0.6 0 0.12 -0.6 0 0.14 -0.6 0 
0.16 -0.6 0 0.18 -0.6 0 0.2 -0.6 0 
0.22 -0.6 0 0.24 -0.6 0 0.26 -0.6 0 
0.28 -0.6 0 0.3 -0.6 0 0.32 -0.6 0 
0.34 -0.6 0 0.36 -0.6 0 0.38 -0.6 0 
0.4 -0.6 0 0.42 -0.6 0 0.44 -0.6 0 
0.46 -0.6 0 0.48 -0.6 0 0.5 -0.6 0 
0.52 -0.6 0 0.54 -0.6 0 0.56 -0.6 0 
0.58 -0.6 0 0.6 -0.58 0 0.6 -0.56 0 
0.6 -0.54 0 0.6 -0.52 0 0.6 -0.5 0 
0.6 -0.48 0 0.6 -0.46 0 0.6 -0.44 0 
0.6 -0.42 0 0.6 -0.4 0 0.6 -0.38 0 
0.6 -0.36 0 0.6 -0.34 0 0.6 -0.32 0 
0.6 -0.3 0 0.6 -0.28 0 0.6 -0.26 0 
0.6 -0.24 0 0.6 -0.22 0 0.6 -0.2 0 
0.6 -0.18 0 0.6 -0.16 0 0.6 -0.14 0 
0.6 -0.12 0 0.6 -0.1 0 0.6 -0.08 0 
0.6 -0.06 0 0.6 -0.04 0 0.6 -0.02 0 
0.6 -8.881784197e-16 0 0.6 0.02 0 0.6 0.04 0 
0.6 0.06 0 0.6 0.08 0 0.6 0.1 0 
0.6 0.12 0 0.6 0.14 0 0.6 0.16 0 
0.6 0.18 0 0.6 0.2 0 0.6 0.22 0 
0.6 0.24 0 0.6 0.26 0 0.6 0.28 0 
0.6 0.3 0 0.6 0.32 0 0.6 0.34 0 
0.6 0.36 0 0.6 0.38 0 0.6 0.4 0 
0.6 0.42 0 0.6 0.44 0 0.6 0.46 0 
0.6 0.48 0 0.6 0.5 0 0.6 0.52 0 
0.6 0.54 0 0.6 0.56 0 0.6 0.58 0 
0.58 0.6 0 0.56 0.6 0 0.54 0.6 0 
0.52 0.6 0 0.5 0.6 0 0.48 0.6 0 
0.46 0.6 0 0.44 0.6 0 0.42 0.6 0 
0.4 0.6 0 0.38 0.6 0 0.36 0.6 0 
0.34 0.6 0 0.32 0.6 0 0.3 0.6 0 
0.28 0.6 0 0.26 0.6 0 0.24 0.6 0 
0.22 0.6 0 0.2 0.6 0 0.18 0.6 0 
0.16 0.6 0 0.14 0.6 0 0.12 0.6 0 
0.1 0.6 0 0.08 0.6 0 0.06 0.6 0 
0.04 0.6 0 0.02 0.6 0 8.881784197e-16 0.6 0 
-0.02 0.6 0 -0.04 0.6 0 -0.06 0.6 0 
-0.08 0.6 0 -0.1 0.6 0 -0.12 0.6 0 
-0.14 0.6 0 -0.16 0.6 0 -0.18 0.6 0 
-0.2 0.6 0 -0.22 0.6 0 -0.24 0.6 0 
-0.26 0.6 0 -0.28 0.6 0 -0.3 0.6 0 
-0.32 0.6 0 -0.34 0.6 0 -0.36 0.6 0 
-0.38 0.6 0 -0.4 0.6 0 -0.42 0.6 0 
-0.44 0.6 0 -0.46 0.6 0 -0.48 0.6 0 
-0.5 0.6 0 -0.52 0.6 0 -0.54 0.6 0 
-0.56 0.6 0 -0.58 0.6 0 -0.6 0.58 0 
-0.6 0.56 0 -0.6 0.54 0 -0.6 0.52 0 
-0.6 0.5 0 -0.6 0.48 0 -0.6 0.46 0 
-0.6 0.44 0 -0.6 0.42 0 -0.6 0.4 0 
-0.6 0.38 0 -0.6 0.36 0 -0.6 0.34 0 
-0.6 0.32 0 -0.6 0.3 0 -0.6 0.28 0 
-0.6 0.26 0 -0.6 0.24 0 -0.6 0.22 0 
-0.6 0.2 0 -0.6 0.18 0 -0.6 0.16 0 
-0.6 0.14 0 -0.6 0.12 0 -0.6 0.1 0 
-0.6 0.08 0 -0.6 0.06 0 -0.6 0.04 0 
-0.6 0.02 0 -0.6 8.881784197e-16 0 -0.6 -0.02 0 
-0.6 -0.04 0 -0.6 -0.06 0 -0.6 -0.08 0 
-0.6 -0.1 0 -0.6 -0.12 0 -0.6 -0.14 0 
-0.6 -0.16 0 -0.6 -0.18 0 -0.6 -0.2 0 
-0.6 -0.22 0 -0.6 -0.24 0 -0.6 -0.26 0 
-0.6 -0.28 0 -0.6 -0.3 0 -0.6 -0.32 0 
-0.6 -0.34 0 -0.6 -0.36 0 -0.6 -0.38 0 
-0.6 -0.4 0 -0.6 -0.42 0 -0.6 -0.44 0 
-0.6 -0.46 0 -0.6 -0.48 0 -0.6 -0.5 0 
-0.6 -0.52 0 -0.6 -0.54 0 -0.6 -0.56 0 
-0.6 -0.58 0 0.25 -0.58267949192 0 -0.25 -0.58267949192 0 
-0.24969338163 0.58271630631 0 0.58313820224 0.25089999788 0 -0.58073798855 0.23055415423 0 
0.23 0.58267949192 0 0.5822727489 -0.23023532651 0 -0.58232885758 -0.22986293355 0 
-0.13 -0.58267949192 0 0.58091085312 0.12866705289 0 -0.13050081 0.58443309409 0 
0.13 -0.58267949192 0 0.11 0.58267949192 0 0.58128887437 -0.11185352307 0 
-0.58641004823 0.11046978504 0 -0.58097603768 -0.11235367818 0 -0.01 0.5841811861 0 
0.01 -0.58267949192 0 0.58217507245 0.011050809949 0 -0.58206506685 -0.010494327869 0 
0.58255589861 -0.33012459525 0 -0.58098267687 0.33246863147 0 0.33 0.58267949192 0 
-0.58090018381 -0.32734039494 0 0.35 -0.58267949192 0 0.58210978525 0.34851718814 0 
-0.34984356206 0.58269328777 0 -0.35 -0.58267949192 0 -0.58404031657 -0.41125547479 0 
0.58404031657 -0.41125547479 0 0.41 0.58267949192 0 -0.58127371569 0.40748932397 0 
0.43 -0.58267949192 0 0.58287041801 0.42966930632 0 -0.43030661837 0.58271630631 0 
-0.43 -0.58267949192 0 0.49 0.58267949192 0 0.58119455181 -0.49272606834 0 
-0.58196591894 0.48785347999 0 -0.58132747275 -0.49216380446 0 0.58099079541 0.19297246443 0 
-0.18926154554 0.58413656679 0 0.05 0.58267949192 0 0.19 -0.58267949192 0 
-0.07 -0.58267949192 0 0.58212565717 -0.051217328366 0 -0.07 0.58267949192 0 
0.58245912871 0.070013739955 0 0.07 -0.58267949192 0 0.58168449499 -0.17128271923 0 
-0.58574378526 0.05125913651 0 0.17050081 0.58443309409 0 -0.58168449499 -0.17128271923 0 
-0.58573295936 0.16883725031 0 -0.19 -0.58267949192 0 0.49 -0.58267949192 0 
-0.49050081 0.58443309409 0 0.58415322569 0.48921568047 0 -0.49 -0.58267949192 0 
0.53 -0.58267949192 0 0.58203286059 0.53119351335 0 -0.53 0.58267949192 0 
-0.58222913959 -0.53018403998 0 0.58202539473 0.28969699417 0 -0.29 0.58267949192 0 
-0.58451963751 -0.45057023735 0 -0.58267949192 -0.07 0 -0.29 -0.58267949192 0 
-0.03 -0.58267949192 0 0.39 -0.58267949192 0 0.58307204747 0.39068583015 0 
-0.39 0.58373814012 0 0.29 -0.58267949192 0 0.58208722445 -0.45065236781 0 
0.45042926572 0.58129593389 0 -0.58211115223 0.44955595746 0 -0.58432719917 -0.36932980655 0 
-0.58406793967 -0.26883049013 0 0.5820526686 -0.36901719046 0 0.37 0.58267949192 0 
-0.5823078615 0.36998422007 0 -0.39 -0.58267949192 0 -0.58211498987 0.271305057 0 
-0.53 -0.58267949192 0 0.58222913959 -0.53018403998 0 0.53 0.58373814012 0 
-0.58219774606 0.53090792334 0 0.58030324732 -0.28813008885 0 0.29050081 0.58443309409 0 
-0.58188605505 -0.56816348762 0 0.56922649731 -0.58312607391 0 0.58067979276 0.57009350437 0 
-0.57009384201 0.58146184644 0 0.54987108288 -0.58275392226 0 0.53997851381 -0.5653713889 0 
0.51999641897 -0.56536105136 0 0.52999582213 -0.54804088787 0 0.50999870685 -0.54803922237 0 
0.51999908816 -0.53071849415 0 0.4999996325 -0.53071817987 0 0.50999978678 -0.51339758273 0 
0.48999990321 -0.5133975155 0 0.49999994833 -0.49607698138 0 0.47999997526 -0.49607696583 0 
0.48999998726 -0.47875645082 0 0.46999999375 -0.47875644708 0 0.47999999684 -0.46143593722 0 
0.45999999843 -0.4614359363 0 0.46999999921 -0.44411542777 0 0.44999999961 -0.44411542755 0 
0.4599999998 -0.42679491936 0 0.4399999999 -0.4267949193 0 0.44999999995 -0.4094744112 0 
0.42999999998 -0.40947441118 0 0.43999999999 -0.3921539031 0 0.41999999999 -0.3921539031 0 
0.43 -0.37483339502 0 0.41 -0.37483339502 0 0.42 -0.35751288694 0 
0.4 -0.35751288694 0 0.41 -0.34019237886 0 0.39 -0.34019237886 0 
0.4 -0.32287187079 0 0.38 -0.32287187079 0 0.39 -0.30555136271 0 
0.37 -0.30555136271 0 0.38 -0.28823085464 0 0.36 -0.28823085464 0 
0.37 -0.27091034656 0 0.35 -0.27091034656 0 0.36 -0.25358983849 0 
0.34 -0.25358983849 0 0.35 -0.23626933041 0 0.33 -0.27091034656 0 
0.32 -0.25358983849 0 0.31 -0.27091034656 0 0.3 -0.25358983849 0 
0.29 -0.27091034656 0 0.28 -0.25358983849 0 0.27 -0.27091034656 0 
0.26 -0.25358983849 0 0.25 -0.27091034656 0 0.27 -0.23626933041 0 
0.24 -0.25358983849 0 0.23 -0.27091034656 0 0.22 -0.25358983849 0 
0.21 -0.27091034656 0 0.2 -0.25358983849 0 0.19 -0.27091034656 0 
0.18 -0.25358983849 0 0.17 -0.27091034656 0 0.19 -0.23626933041 0 
0.16 -0.25358983849 0 0.15 -0.27091034656 0 0.14 -0.25358983849 0 
0.13 -0.27091034656 0 0.12 -0.25358983849 0 0.11 -0.27091034656 0 
0.1 -0.25358983849 0 0.09 -0.27091034656 0 0.08 -0.25358983849 0 
0.07 -0.27091034656 0 0.06 -0.25358983849 0 0.05 -0.27091034656 0 
0.04 -0.25358983849 0 0.03 -0.27091034656 0 0.02 -0.25358983849 0 
0.01 -0.27091034656 0 -1.7474921972e-14 -0.25358983849 0 -0.01 -0.27091034656 0 
-0.02 -0.25358983849 0 -0.03 -0.27091034656 0 -0.04 -0.25358983849 0 
-0.05 -0.27091034656 0 -0.06 -0.25358983849 0 -0.07 -0.27091034656 0 
-0.08 -0.25358983849 0 -0.09 -0.27091034656 0 -0.1 -0.25358983849 0 
-0.11 -0.27091034656 0 -0.12 -0.25358983849 0 -0.13 -0.27091034656 0 
-0.14 -0.25358983849 0 -0.15 -0.27091034656 0 -0.16 -0.25358983849 0 
-0.17 -0.27091034656 0 -0.18 -0.25358983849 0 -0.19 -0.27091034656 0 
-0.2 -0.25358983849 0 -0.21 -0.27091034656 0 -0.22 -0.25358983849 0 
-0.21 -0.23626933041 0 -0.23 -0.23626933041 0 -0.22 -0.21894882233 0 
-0.23 -0.27091034656 0 -0.24 -0.21894882233 0 -0.23 -0.20162831426 0 
-0.25 -0.20162831426 0 -0.24 -0.18430780618 0 -0.26 -0.18430780618 0 
-0.25 -0.16698729811 0 -0.27 -0.16698729811 0 -0.26 -0.14966679003 0 
-0.27 -0.20162831426 0 -0.28 -0.14966679003 0 -0.27 -0.13234628196 0 
-0.29 -0.13234628196 0 -0.28 -0.11502577388 0 -0.3 -0.11502577388 0 
-0.29 -0.097705265805 0 0.22 -0.28823085464 0 0.1 -0.28823085464 0 
-0.1 -0.28823085464 0 -0.22 -0.28823085464 0 -0.24 -0.28823085464 0 
0.02 -0.28823085464 0 -0.31 -0.13234628196 0 -0.31 -0.097705265805 0 
-0.3 -0.080384757729 0 -0.28 -0.080384757729 0 -0.29 -0.063064249654 0 
-0.31 -0.063064249654 0 -0.3 -0.045743741578 0 -0.28 -0.045743741578 0 
-0.29 -0.028423233502 0 -0.27 -0.028423233502 0 -0.28 -0.011102725427 0 
-0.3 -0.011102725427 0 -0.29 0.0062177826491 0 -0.27 0.0062177826491 0 
-0.28 0.023538290725 0 -0.26 0.023538290725 0 -0.27 0.0408587988 0 
-0.25 0.0408587988 0 -0.26 0.058179306876 0 -0.24 0.058179306876 0 
-0.25 0.075499814952 0 -0.23 0.075499814952 0 -0.24 0.092820323028 0 
-0.22 0.092820323028 0 -0.23 0.1101408311 0 -0.21 0.1101408311 0 
-0.22 0.12746133918 0 -0.2 0.12746133918 0 -0.21 0.14478184725 0 
-0.19 0.14478184725 0 -0.2 0.16210235533 0 -0.18 0.16210235533 0 
-0.19 0.17942286341 0 -0.17 0.17942286341 0 -0.21 0.17942286341 0 
-0.2 0.19674337148 0 -0.22 0.19674337148 0 -0.21 0.21406387956 0 
-0.23 0.21406387956 0 -0.22 0.23138438763 0 -0.24 0.23138438763 0 
-0.23 0.24870489571 0 -0.21 0.24870489571 0 -0.25 0.24870489571 0 
-0.27 0.075499814952 0 -0.22 0.26602540378 0 -0.2 0.26602540378 0 
-0.21 0.28334591186 0 -0.19 0.28334591186 0 -0.31 0.0062177826491 0 
-0.23 -0.16698729811 0 0.11 -0.23626933041 0 -0.2 0.30066641994 0 
-0.18 0.30066641994 0 -0.23 -0.30555136271 0 -0.25 -0.30555136271 0 
0.39 -0.37483339502 0 -0.09 -0.23626933041 0 -0.19 0.31798692801 0 
[...]
CELL_DATA 8442
FIELD FieldData 1
flux 1 8442 double
0.00046755285346 0.099077274898 0.46618475519 2.7089041939 0.70318702991 0.00053512079013 1.422066426 0.67708124526 4.4717784232 
0.58650847422 0.074376256234 0.035835579458 1.2667097288 1.2789251812 7.5143094412e-05 0.080121666076 0.003867422513 5.7825047311 
0.015238802623 1.149481058 1.1890280709 7.4694643701e-05 0.00034555017662 0.00072916646834 0.12789635837 0.00033967877582 0.0010828076506 
0.15141718807 0.038021558587 0.45953558127 0.029225061418 0.0045401965711 1.0196132514 0.99635110513 0.91706277602 1.7023966195 
1.701504482 0.73028641223 0.93780118291 0.94272541952 0.16135572618 5.5306555736e-05 0.0073362401767 8.7069129874 0.52161908464 
0.32189013565 0.37948430878 0.00014210104919 0.00014071890942 0.013259472958 0.25490624296 0.027020454407 0.00020689774548 0.0002030354696 
0.011767149869 0.40489092648 0.0086280574586 1.5639573241 0.86040916064 0.8396455532 1.056928602 6.9016655774e-06 0.70833978813 
1.0161608307 0.0012927573643 0.05424874707 0.002786325769 2.9755740849e-05 0.34867813451 1.0651036926 1.0151811072 0.0012097085412 
0.2437207359 0.28428416204 0.11354942016 0.00061400047933 0.68880951346 7.4205474286 1.3442544272 1.3577475883 1.0919482007 
0.84710331204 0.00031498208781 0.46556242037 0.29730944951 1.3169186427 1.6439021385 0.00010928117335 0.00010975438958 0.60312598298 
0.60813996867 0.17116676308 1.8056363679 0.0046773910997 0.0045961195154 0.65280201626 2.3436032842 0.87608451083 0.87419798844 
0.046763772419 6.2100091821e-06 0.11613775295 0.34422430439 0.26486044646 0.0019188439717 0.33488381335 0.016225569509 0.91810019068 
0.00020336560158 0.00020184766009 5.4179564935e-05 0.0084991075982 0.00043423351928 0.00042262379359 0.00072217904175 0.0022743708329 5.0357961628 
0.95660326701 1.5512708416 1.5562426941 7.9674314018 0.064066607947 9.3293022174 1.195659342 1.2053501404 1.6901655053 
0.94782901317 0.94585135592 0.59664724733 1.276345753 0.19942218485 0.74345523661 2.8172301101e-05 0.027185391458 0.70607596212 
0.016252920014 0.00064243927018 0.0029338302725 0.0028760972481 0.048564251704 0.73589064077 52.198557339 52.17995784 2.8735379286 
1.1813300829 1.1799347 6.1399823945e-05 0.071382322172 1.6830868448 0.27664817958 10.039260684 0.0076868432134 0.013216577596 
0.00026395267042 0.00026316013366 0.00021614482709 0.00028490572015 0.51170822385 0.70661624588 0.0072654152755 0.0076209476527 1.2864959106 
0.00039475130556 0.00039778656735 0.27303735015 0.00288337477 0.00058638710198 0.067542154233 0.89213681305 5.9098470968 0.00087634890186 
0.38346273534 1.4952621348 52.391926716 52.396043811 0.00071432642818 52.436622962 52.412660562 0.93473177565 0.00070826917202 
0.0097368542836 0.80864499794 0.80084900497 2.1896347466e-05 6.013459426 0.058706198695 1.2691580451e-05 0.035229719828 0.0041684865349 
0.0012856800737 6.2116390929e-05 6.1925530115e-05 0.015782308798 0.0012546625472 0.0021338914604 0.010691017374 0.033370242523 0.20267175636 
0.0024772794261 0.79394465733 0.048522821034 0.072163924328 1.7595203013 1.5565735313 1.4867705401 1.6532137749 2.0682862167 
3.2174315378 1.5584576481 0.88062226253 0.57128012343 3.3903148033 0.35119631725 1.7094187969 1.2378876446 0.62623603716 
2.1976401926 0.70502389956 0.0076940737711 2.2151622925 0.00089506391009 0.0013570546696 0.0014052000934 0.0069613282579 0.0023973218975 
0.083429551446 0.41874873981 12.058492602 19.150625236 19.054166468 12.150836334 20.373624829 4.9703597193 20.259518843 
0.10533660715 0.54825687317 3.0950674806 5.645211119 6.9582319597 17.734567872 16.361127578 18.251555756 15.447522023 
17.816943286 18.173406012 13.691170141 2.3286557596 15.801027372 0.22441833351 16.234672523 0.76213848802 14.658045798 
8.1650736824 0.14076705425 6.5805845585 2.6786173991 11.084495258 3.6374617548 0.32462566898 0.069924870985 8.8354993577 
0.0029470577948 14.070231166 14.264752016 9.3656043721 5.9080593659 1.7171715124 12.791159069 4.2757287305 12.047381584 
10.507784476 0.9762533413 10.294549609 12.722474891 4.6879807713 14.56866267 11.800346185 0.37654277384 0.00040249682024 
0.00022443324127 15.589702225 1.0600306111 1.3106319793 13.097464256 11.742279309 15.443321002 0.077501222504 15.440159578 
14.99905208 8.566028929 3.7476076579 15.985968382 19.298455553 1.7994259957 20.139635064 7.9076860464 11.503173945 
20.000440884 11.596484946 16.048716808 0.00075698585749 20.785992494 8.119353181 14.529638384 19.932288802 13.836901467 
16.809867652 4.6996457545 3.5468099257 0.10713808266 18.004240509 3.8572547809 5.7813693771 1.7467011243 11.61615794 
4.0266058274 8.5403566904 15.485991394 22.163534355 10.504995756 9.154947367 5.5844735192 18.1952954 19.198479228 
4.9975773277 15.589863151 12.557035474 17.814795709 19.030790975 2.1853578035 18.03883699 13.654633767 3.4924410782 
6.773778829 19.766085476 9.2807179516 16.390997815 14.951036869 20.190895509 19.901432341 3.3278976446 15.683625667 
6.3858497094 13.45684619 15.667616013 10.111635914 13.314001878 16.615241405 17.390956679 12.062004356 0.00021639781024 
10.72618144 15.555501294 11.542868283 0.20979132571 15.672932615 15.328353443 11.886530469 10.855292164 2.3959814551 
14.019709005 11.042061476 16.342092722 0.74646007163 14.263279816 18.182337683 15.572178045 13.704617117 2.1309347455 
13.254059642 2.2138070176 4.2763937876 15.83105511 19.873924063 16.707633547 15.967030123 8.534345023 12.313205656 
2.9682304137 13.655616743 1.2506917919 0.039144129745 17.749996713 11.812517219 13.816530538 12.382062378 10.618331485 
17.400629732 6.3217198337 0.1404897379 12.255761566 13.077182578 16.788463925 7.2335809027 16.221440667 0.013771374016 
3.0475383773 8.8619768875 6.3253980158 16.566248484 12.79128183 16.371926003 13.125095785 0.1351536008 12.333330186 
16.277018755 0.10133084072 10.560426295 6.5947906556 13.002242868 13.886537154 15.803552945 2.5366253114 15.82359292 
10.024058858 23.665421639 17.251668771 5.5835836269 3.6896887296 17.392517153 16.184785874 18.927471183 15.712866307 
0.15589888959 9.486701181 10.505447 12.330926874 16.258931009 18.367590805 9.3822910744 4.0097353465 1.8008569241 
13.157590741 0.1225497841 10.574151056 3.6324326459 9.1608127376 15.753638281 7.0499787479 0.17060188678 0.9598599957 
3.6151537356 11.665126454 17.046955487 9.7427867889 8.0365810994 0.03686436035 19.145797212 13.97062035 11.754643222 
4.5598797741 0.17505280762 17.068435095 13.237621304 0.00011017275773 9.803770185 12.991460311 13.651089512 3.7241147449 
18.583165327 9.8197712138 18.587341138 15.626215648 9.338837198 11.160091966 16.52212299 1.4013590634 12.8897418 
9.1669553721 11.742676587 9.8169184468 3.3188975042 20.264182043 3.8732391541 15.79587072 18.239403415 13.031414381 
11.532588724 14.961146074 26.484528948 0.13482484133 1.722926247 8.9766706038 12.476580526 9.3026878442 1.1733683748 
17.190418376 13.22935866 7.9353875754 20.158485566 12.160537081 15.185585999 0.045906534704 10.53144137 0.19905759695 
16.232753815 0.022948432912 9.3061731608 16.698737584 14.598075571 1.4199663406 17.002353095 13.89215767 17.567594199 
0.00041475816985 10.012200937 11.280303858 1.228002905 9.5555861631 9.411656201 16.097455632 8.3591007403 12.655174391 
0.48779749638 11.907107293 8.8376863958 16.741569235 12.735969634 10.588754541 16.178184049 0.19681615417 3.1890511475 
9.5223165222 15.47523717 13.453627289 15.011171251 9.2806946162 18.63544361 15.190785338 0.53602011697 17.670123447 
1.0766562008 20.509850044 9.5294592919 17.395323801 15.832532222 18.918537106 23.773973177 19.996120275 20.37359001 
22.026187477 9.9944452945 9.162688511 10.905474263 15.558817996 3.3300063557 19.949663833 0.02763746136 15.755493094 
2.7386336874 17.655022826 13.939949236 14.068572171 10.770508795 3.152321439 0.67051148169 3.0886774527 15.002766089 
9.2537215051 13.508075874 6.3760483278 15.042507589 15.675081951 0.10083603592 9.0990870179 1.7347435127 12.310343043 
0.021437340392 11.192286676 6.6632608308 10.744384946 11.55578327 9.4384919813 18.036831682 0.035903647598 20.25919428 
3.9701910908 13.769876969 11.63997636 0.080973580566 13.95118284 3.5912548578 9.2509477965e-05 17.249226806 22.030848879 
4.5070089671 16.713959974 14.051600093 14.129140571 18.680382653 13.837902858 1.025057446 11.41955401 17.568592707 
14.689532854 18.351276244 6.2125950518 9.9705778734 7.5117889012 14.723364532 0.022042098123 4.1425662748 0.74339967529 
19.719111144 10.640988489 10.174078352 0.002246156066 0.01209007785 16.567607142 2.5303396713 15.717726255 18.395474989 
5.7573062241 16.197914243 14.577727684 7.1286633891 1.6549498307 14.745445485 17.811798893 11.474796563 20.663658029 
15.323647274 19.974497526 18.245874583 15.796875728 0.053684584499 0.051353774366 13.288746743 14.837195656 18.682855666 
15.70786842 14.374120636 16.792598834 12.798989053 1.9423937463 12.241840149 0.015423000027 12.083913163 0.089297775895 
13.465250417 14.20645517 12.51123205 16.004488934 2.7493664661 3.0455244581 13.702154213 9.8766246512 8.8698065471 
15.516871841 2.6570893872 2.3982306381 17.121953604 10.900172713 10.407240609 16.123378485 11.501390334 0.3288706247 
1.8908784068 10.40703728 0.19405955655 11.592244205 18.008387491 12.939821738 7.4705832541 0.077819311606 20.780561598 
2.874400286 16.900571456 19.553926125 2.9133176971 9.4523880422 10.376623946 4.5230913998 0.6910196985 13.424526494 
2.4368343322 19.035994602 9.5533896421 10.751116845 10.348389049 7.638055998 0.0058585781177 15.680449852 4.996998476 
10.396227713 12.146771404 6.2939566235 14.99205348 2.8995900296 14.963501588 0.19893726341 10.179970359 10.092159458 
8.3796506048 12.512864479 0.13523667278 8.7354438582 11.146691123 13.554097868 20.017685186 4.6409288027 1.6460825445 
15.099462254 4.2548258028 9.6282719693 10.504929489 9.2246339144 11.063989363 16.506911489 17.088329085 20.236621123 
13.611752731 16.408071557 0.11810178773 20.749301171 9.5155602762 12.798147106 10.814638293 0.021760333492 12.431252299 
20.635725309 10.451048881 0.70608553121 14.652641216 0.20407625977 1.4457685267 13.82062539 9.8235182232 10.77119676 
16.691733678 10.181149221 0.51753948739 1.3955914327 0.00027056572424 4.7696612308e-05 18.168923902 1.0507088646 9.1006220161 
10.960650114 17.677072319 9.6251499598 15.536090488 20.527794312 13.06731141 19.077197661 18.721099603 13.394713457 
0.38430359665 15.308898794 16.18406535 14.678806145 10.762748753 12.722502462 17.293819355 0.27314232938 10.433105173 
20.562094567 1.5678839454 18.956506458 5.7384612391e-05 10.872135688 6.6475745358 0.46520394256 11.939881564 0.12239621692 
10.485323067 12.85078894 15.626985903 9.7098704579 14.936668766 13.913877929 19.578181719 1.216690221 10.655731198 
13.67588171 9.128971613 21.832731594 0.98226021727 12.269003559 7.3074330282 12.415301133 7.246260653 1.5229629666 
12.197927531 4.7022181267 5.7204550888 0.65033325384 10.645370811 9.994625746 10.640393988 19.804156023 18.149999348 
0.2244824918 13.864503783 5.5992073386 8.5657749541 17.580238259 16.461240867 12.665368251 18.812312223 4.026010326 
0.083430867225 0.045172444295 10.437516228 14.607025726 15.614417583 0.078670058633 8.4004887326 11.163298257 17.414119094 
19.656342951 10.615398134 0.0083041718716 14.139343825 8.8691462066 15.110979383 1.2175062718 17.11887929 1.2174549959 
0.47723334258 0.022842403832 0.034530310749 20.448198602 0.38879648335 4.0013554544 17.408922781 17.096046021 11.868973591 
5.7245616436 17.767466878 11.031693361 20.621018755 10.914859803 0.013046945475 15.045512175 16.136397599 0.017120416724 
1.1026778538 12.037151272 12.668879422 16.922681676 13.097299936 0.00018690736372 11.317911343 6.2940038151 14.868021318 
11.608293012 2.457078676 17.780407257 17.053831631 12.185085941 8.0423438577 4.3018600318 0.38520672716 1.9815241838 
11.018484587 1.1746365785 4.166371556 9.67045357 0.92043704201 6.6686531513 0.030111148073 0.33233865962 0.28755845528 
8.5261704607 17.092267278 0.022865336832 3.1590696983 13.002441616 17.587948778 11.353632434 10.441826937 10.041550744 
15.673044634 16.508979368 16.931710431 8.8357966726 17.746485048 16.834100007 15.053571916 17.423415236 1.9704523404 
13.992861223 0.32471247286 16.707953978 20.651425593 11.078713791 11.173786914 19.644777436 14.732020112 0.06677884395 
0.2692936051 15.382762863 14.383724055 22.732351129 2.1341440829 0.20198190434 9.966770253 0.089346981642 17.06557813 
1.8926642019 2.3087032468 0.00024378217503 11.164559939 20.919087333 0.0013593154958 0.95236751183 10.988885173 4.6014612999 
18.028830633 12.811793726 9.0373196973 0.057928234244 0.0024454313716 0.057966024167 16.950246735 0.021241336673 16.230979024 
10.880829669 20.003677766 11.546216122 13.796931898 9.3067281478 12.318089508 9.7308252543 12.069624421 8.1640157718 
15.097133895 13.920307866 10.673910249 0.13437643063 6.9640922358 11.717499379 0.037434520941 18.184569372 4.3550368376 
0.027627963142 2.7799746324 0.24829408323 0.073294183564 19.568397565 11.509721952 14.740323292 7.1319255815 4.1630248106 
0.5346930033 6.3547529763 2.1218153193 0.9206230521 9.2411663957 7.3057479831 1.2503527775 2.6231126719 10.19071548 
10.576172494 4.5596364751 1.430585131 3.8646862659 0.12278290402 9.5407991567 0.014631127254 12.810857123 3.1598365626 
10.574119048 14.228155809 6.5860306803 13.251432905 23.080899371 2.0506484223 11.025680322 0.48825731231 14.509948861 
16.192450186 0.090922640616 12.751578627 20.462551733 18.944210691 13.846250329 9.7703318536 18.033896258 24.352779636 
16.229603111 17.566866181 14.087404832 10.849145661 18.047146003 1.9636749451 10.771254092 8.4777993965 3.7797630481 
13.244617582 0.025947135062 11.386890443 13.490965515 2.6912575501 2.7807718566 11.451472442 10.492645295 0.046523617431 
1.8179226444 10.073258872 11.019676562 20.89369429 1.5171090579 4.2905712968 14.962279608 1.5147100003 18.943774504 
0.017114416475 17.273541003 5.6323773299 10.787645949 7.4309721947 0.036896907854 10.589856331 19.143182446 17.691121853 
6.5798948308 3.7603495852 10.630889051 1.6744178135 15.880448222 18.19363763 10.238341833 1.6359858567 17.747019788 
12.239300724 14.562957078 17.035098874 10.652288673 0.14278419394 10.095486576 11.501638237 13.276240842 7.5796641604 
12.888851561 11.833787399 17.360023396 8.0119311024 11.594736346 0.0098162921237 19.657023536 13.292991816 5.8335144088 
3.8637272079 9.6141351789 8.0626896217 11.631963384 6.7122096772 3.4302021788 0.95241771427 19.060458844 0.055801855287 
0.48509217809 6.587457088 0.17126064941 9.1442076872 7.8375902051 4.0274521935 0.033640650699 0.49531039587 0.53844718346 
0.20806511539 0.043466295416 14.360927364 22.41712348 17.087775191 9.0407703304 14.615651176 12.553949155 20.581721859 
17.297125741 16.588832476 1.9785728793 10.656440147 11.29950841 0.07169264743 2.706049307 14.708804438 9.7550006827 
13.920756735 5.2854801569e-05 0.0003448245531 3.2442198532 15.097687621 10.606133047 16.956854678 10.743969341 13.745075965 
17.086656115 14.373494849 14.056186407 7.1285555311 10.267993237 5.7614321753 10.877057241 9.6638896384 11.202370878 
11.904835017 6.851065757 10.105320753 6.3848133107 9.493728636 17.382482873 6.6667345157 19.696540546 2.5633644685 
16.673074347 19.295915067 10.152851379 11.429922318 13.698333293 3.7576288698 8.928481859 10.075703902 7.1605403117 
10.727116019 10.5701418 1.0297283987 16.685449738 3.9891219404e-05 12.997522226 5.9419422619 6.6481743065 12.930837561 
11.90405744 18.672528015 10.567368181 8.9189293302 12.991406198 12.934952418 3.9690503712 6.285158967 5.5465961165 
0.37137108779 7.3237898768 1.8467425811 0.26677341778 9.4636733935 18.171417453 0.12539115912 15.149486525 10.369318836 
16.391111087 10.513070201 18.774300413 17.349092827 0.003326096266 0.010088123449 6.318443877 0.010976454033 13.875834328 
9.458218253 0.69416970479 9.7717759139 12.531105754 4.0358784615 6.6600127786 10.214640853 16.107307112 0.75684680566 
13.312329316 15.547861528 1.8650048599 9.6038785779 10.608009393 0.032111736698 11.537787005 0.53497481466 15.879163815 
15.083078365 8.1478263549 0.49210611111 14.535504623 6.9077111128 8.3332821511 26.516324752 0.00062160223197 23.818278049 
17.082075549 3.4511495631 15.271539225 0.40957713183 11.198639334 13.812664482 11.374522012 11.055416444 12.34752968 
8.4131353631 9.650669998 16.061619764 11.479585083 19.914545097 7.1000880095 8.3998341156 11.024587427 15.173345058 
8.6736237713 11.10776735 14.860074832 2.7892130303 11.391687055 0.64868504791 14.456867125 4.5072117214 2.062259309 
2.6287454296 10.972750977 10.337895264 11.358264258 13.918968831 6.416750041 0.029293202077 18.011486919 0.0018649227475 
19.227494058 10.539121998 8.4801453259 8.0527419969 7.8270460038 9.1656723039 10.868269138 12.914005345 6.2689813887 
1.3056881059 2.7937062154 1.9645174483 9.0284060986 8.2638914869 16.683512332 5.780961067 2.3975844007 3.5206735956 
0.75653471035 4.9554990949 14.032965062 13.451420519 7.4891716479 7.2575733755 0.010112743565 0.054281317544 2.0055673169 
11.288176706 19.522830166 15.249614467 0.00053775151451 15.194867011 17.049998125 2.0902609882 0.31547420802 16.702957821 
15.344670536 1.1736376591 16.322691703 18.048175089 16.577649741 12.863459771 0.86613884141 0.28435807747 0.0018476361095 
7.167079889 22.066070958 25.378343878 11.019882053 4.5418556936 11.786646274 11.438419419 3.5684687818 4.0316108007 
5.7281009024 3.9760041892 6.0469884461 10.131274165 11.570290629 0.30199741169 9.2052697415 0.39750605574 13.392558045 
3.3718594141 14.110437788 6.5768174682 13.03644871 20.234003848 0.066513025104 13.908213475 10.172158716 2.4483898868 
19.341273437 7.0767997334 12.247490158 8.8242267418 24.969420961 4.6463682597 17.812758601 1.6481793805 2.8129139959 
9.0347928141 9.3480042136 10.29710337 10.070441278 11.663038138 10.985410859 2.6305529746 15.87906404 0.90268956222 
0.0096447776058 16.521913803 5.9765812744 0.067109421777 0.013572574838 0.0051082156164 0.011208567283 0.67860215765 21.772763607 
13.095667911 0.037102764313 1.7208027496 3.6194395753 7.9903635288 14.543913591 0.67968755492 0.0006724486212 0.54832489797 
25.605547595 10.361795762 1.5134353322 14.235946735 8.4896103581 11.095667572 4.1842926688 13.25216721 10.871237253 
0.30070505631 0.61803097015 0.10710504385 14.660447 23.841689387 15.886541746 1.6125257359 25.013409795 2.6339067861 
0.20966097474 1.6181541958 0.64692358082 2.5640239759 13.055372785 9.4776437561 13.420808495 14.600557188 0.00090159373503 
11.054870084 12.935527718 14.536845277 14.53072398 0.48259284279 17.796676189 0.68409082593 8.2518107588 2.9417342401 
12.248440972 0.030400576138 0.010879620566 9.9485202721 3.1979445173 9.5972844989 6.0504136582 17.642981072 13.306836054 
2.4516721445 10.791993218 14.519775458 4.4115236686 10.936633564 11.293867575 0.050416314574 15.871801952 11.81532051 
18.17039197 18.483768269 0.74591697048 10.655916693 0.84059401288 3.3185609769 6.0289443842 9.1837025991 0.013462518025 
6.2109976399 2.84983448 14.88255962 12.049310914 3.4592984608 19.730665747 0.061897515884 2.019648958 9.741849627 
0.79453061683 2.4918735208 8.5880181371 15.852166092 16.232604174 0.88644982345 5.3416458712 1.1246704335 5.5165090123 
5.5999757244 4.8632672428 2.8203784428 8.3579736078 12.277436623 1.2909630481 17.518455025 0.21017430268 3.324513469 
11.887550534 18.498642362 0.00022936449266 7.8073188764 10.436925934 14.43135661 3.7172927353 9.5983493449 6.388642123 
4.5336573829 5.3403857591 2.4686894945 4.0133290085 1.8542562697 0.32841000321 5.5728068084 0.011642168265 0.059911792028 
0.0014206403532 5.9437779031 13.178623622 25.481106918 20.139501384 20.69957616 0.16106000599 8.2160296773 13.766085835 
8.51284206 1.452354199 2.258631202 0.0013871865776 11.566249769 9.3791935573 0.38147525985 12.632938031 8.9181584642 
6.7216018411 1.9710600146 0.2453707902 2.3334486121 0.84022669745 0.28647878706 8.5341928283 2.3586227897 4.5081680465 
16.68178257 0.01561107083 10.81143296 0.21806131227 16.625262039 3.047909123 4.9458763687 3.4239154619 0.0095443208699 
5.9789524147 18.217673288 0.1522423693 14.395323519 3.1540994329 0.44698219023 0.48454892188 13.905974105 6.3610720206 