# vtk DataFile Version 4.2
vtk output
ASCII
DATASET UNSTRUCTURED_GRID
POINTS 61 double
-0.6 -0.6 0 0.6 -0.6 0 0.6 0.6 0 
-0.6 0.6 0 0 0 0 -0.4 -0.6 0 
-0.2 -0.6 0 6.6613381478e-16 -0.6 0 0.2 -0.6 0 
0.4 -0.6 0 0.6 -0.4 0 0.6 -0.2 0 
0.6 6.6613381478e-16 0 0.6 0.2 0 0.6 0.4 0 
0.4 0.6 0 0.2 0.6 0 -6.6613381478e-16 0.6 0 
-0.2 0.6 0 -0.4 0.6 0 -0.6 0.4 0 
-0.6 0.2 0 -0.6 -6.6613381478e-16 0 -0.6 -0.2 0 
-0.6 -0.4 0 -0.088332399106 0.43353121176 0 -0.43353121176 -0.088332399106 0 
0.40841747107 -0.28277700638 0 0.098365396477 -0.42773865803 0 0.42773865803 0.098365396477 0 
-0.29915252614 -0.43064559099 0 0.28277700638 0.40841747107 0 -0.43064559099 0.29915252614 0 
-0.10013118828 -0.42759398766 0 -0.20781352442 -0.27458104075 0 -0.0060623725765 -0.26932681281 0 
0.19654300579 -0.27981612736 0 -0.42855941329 0.10180335451 0 -0.27474194502 0.20809221879 0 
-0.27627251382 0.017148940826 0 0.42968185474 -0.087368937613 0 0.25358983849 9.3513224001e-16 0 
0.27719329831 0.19755340122 0 0.089041103842 0.43064728037 0 -9.3611199873e-16 0.25358983849 0 
0.44021646687 0.29298768454 0 0.2928192853 -0.44065360504 0 -0.4176849844 -0.28566219856 0 
-0.28567861737 0.4177134226 0 0.1 -0.12679491924 0 0.12679491924 0.1 0 
-0.10384694829 0.12210748587 0 -0.12288196948 -0.10311927111 0 0.45358983849 -0.45358983849 0 
-0.45358983849 -0.45358983849 0 0.45358983849 0.45358983849 0 -0.45358983849 0.45358983849 0 
0.1476383677 0.28308824116 0 0.28288662677 -0.14773537411 0 -0.28834516088 -0.13980201577 0 
-0.13980201577 0.28834516088 0 
CELLS 96 384
3 38 48 32 
3 34 47 30 
3 42 45 31 
3 36 46 27 
3 44 51 50 
3 38 60 48 
3 34 59 47 
3 39 52 51 
3 27 58 36 
3 31 57 42 
3 50 51 4 
3 41 50 49 
3 51 52 4 
3 49 52 35 
3 6 33 30 
3 33 35 34 
3 8 28 7 
3 11 40 27 
3 13 29 12 
3 18 25 17 
3 23 26 22 
3 37 38 32 
3 16 43 31 
3 21 37 32 
3 33 34 30 
3 37 39 38 
3 11 27 10 
3 6 30 5 
3 7 33 6 
3 16 31 15 
3 21 32 20 
3 25 44 43 
3 26 39 37 
3 28 33 7 
3 25 43 17 
3 26 37 22 
3 28 35 33 
3 29 41 40 
3 12 40 11 
3 29 40 12 
3 17 43 16 
3 22 37 21 
3 28 36 35 
3 29 42 41 
3 49 50 4 
3 4 52 49 
3 14 45 13 
3 9 46 8 
3 19 48 18 
3 24 47 23 
3 28 46 36 
3 29 45 42 
3 13 45 29 
3 23 47 26 
3 8 46 28 
3 18 48 25 
3 5 54 0 
3 10 53 1 
3 15 55 2 
3 20 56 3 
3 0 54 24 
3 1 53 9 
3 2 55 14 
3 3 56 19 
3 40 58 27 
3 43 57 31 
3 35 52 34 
3 39 51 38 
3 48 60 25 
3 47 59 26 
3 50 57 44 
3 49 58 41 
3 36 49 35 
3 42 50 41 
3 14 55 45 
3 9 53 46 
3 19 56 48 
3 24 54 47 
3 30 54 5 
3 27 53 10 
3 31 55 15 
3 32 56 20 
3 25 60 44 
3 26 59 39 
3 41 58 40 
3 44 57 43 
3 46 53 27 
3 47 54 30 
3 45 55 31 
3 48 56 32 
3 42 57 50 
3 36 58 49 
3 44 60 51 
3 39 59 52 
3 52 59 34 
3 51 60 38 

CELL_TYPES 96
5
5
5
5
5
5
5
5
5
5
5
5
5
5
5
5
5
5
5
5
5
5
5
5
5
5
5
5
5
5
5
5
5
5
5
5
5
5
5
5
5
5
5
5
5
5
5
5
5
5
5
5
5
5
5
5
5
5
5
5
5
5
5
5
5
5
5
5
5
5
5
5
5
5
5
5
5
5
5
5
5
5
5
5
5
5
5
5
5
5
5
5
5
5
5
5

CELL_DATA 96
FIELD FieldData 1
radiation%20flux%20density 1 96 double
1.786329004e-23 1.8372063658e-23 4.3288010065e-23 3.7674514352e-23 2.3755721775 9.1219143576e-18 2.0661987585e-18 2.3049920485 5.8046784272e-17 
6.0116739282e-17 4.6817620966 2.4981528417 4.3994044458 2.2774865506 3.4847255142e-38 2.7779478911e-08 1.2025103566e-46 2.9543247381e-36 
1.7284732935e-45 4.4940557714e-46 7.3101153457e-48 1.4974854139e-19 2.2781132123e-36 4.295801296e-39 6.656472186e-19 1.9035441163e-08 1.7538537179e-56 
3.2070530068e-61 1.2196132472e-46 1.2266164321e-56 2.095785169e-61 7.6779210954e-17 1.7725063098e-18 8.0420270759e-38 3.4117379277e-36 4.7141634847e-38 
9.2181054617e-19 6.4671878221e-17 1.5701665697e-45 3.81143391e-36 4.5673433995e-46 8.2464546758e-48 2.9035588278e-08 1.4158000605e-07 4.3270850611 
4.3829501693 1.9122680008e-61 1.175808109e-61 6.8992281494e-58 6.9476283453e-58 2.8876921361e-19 1.5943736543e-18 7.797406033e-37 2.8442998221e-38 
5.1426663179e-38 7.2048548787e-37 2.7463087432e-102 1.4608646777e-101 1.5443042085e-101 2.7213939867e-102 2.7052136085e-102 1.5246014517e-101 1.6105876324e-101 
2.6807622824e-102 4.1961877249e-17 4.0471865988e-17 0.8292301413 0.8526567072 6.6406477554e-18 9.1231944916e-19 1.630120059 1.3947948251 
0.75704102952 0.95594805255 6.3974686946e-67 4.5181909372e-67 6.1103369967e-68 6.6178425047e-68 5.8008438005e-68 5.4421075223e-67 7.7032424995e-67 
5.3571928209e-68 2.8747862688e-07 2.7310006527e-08 1.9117369714e-07 2.8585035495e-07 1.6510765618e-47 1.1379318158e-48 1.905558042e-47 1.061498905e-48 
5.4379364715e-07 2.7765129049e-07 1.4751468497 1.0781388089 7.2835590659e-08 3.8171830195e-07 
POINT_DATA 61
FIELD FieldData 1
radiation%20flux%20density 1 61 double
2.7257611759e-102 1.4927330647e-101 1.5774459205e-101 2.7010781346e-102 4.4478004432 1.0690178623e-61 1.1615751755e-38 2.6806757e-38 1.71422211e-38 
3.9193754241e-62 5.8461790597e-57 9.8477491322e-37 1.2704779711e-36 2.5991353501e-37 6.3742479943e-62 4.0887214406e-57 7.5937107091e-37 1.1372459762e-36 
2.4016182944e-37 2.2997427167e-58 6.9859523489e-62 1.4319337681e-39 1.5713878288e-38 9.4809994093e-39 2.3158761153e-58 4.7913104494e-08 4.5516677549e-09 
1.4286957028e-17 4.8392647132e-09 2.3596667687e-08 1.1094426511e-19 1.4369806937e-17 2.4961067447e-20 4.6299131521e-09 0.13820504032 0.64395962971 
0.12617355603 3.1725735275e-09 0.14210951799 0.70596460182 3.1862282874e-08 0.808149342 0.15932478965 4.7641725845e-08 0.91347327657 
2.6573615705e-19 4.8134481354e-20 4.2550522567e-19 2.2517971395e-18 2.2339301078 2.352662976 2.2985049581 2.1817431768 3.3021531236e-48 
2.2758636315e-49 3.811116084e-48 2.1229978101e-49 0.32602417772 0.27895905878 0.21562778182 0.29502950377 
