# vtk DataFile Version 4.2
vtk output
ASCII
DATASET UNSTRUCTURED_GRID
POINTS 4342 double
-0.6 -0.6 0 0.6 -0.6 0 0.6 0.6 0 
-0.6 0.6 0 0 0 0 -0.58 -0.6 0 
-0.56 -0.6 0 -0.54 -0.6 0 -0.52 -0.6 0 
-0.5 -0.6 0 -0.48 -0.6 0 -0.46 -0.6 0 
-0.44 -0.6 0 -0.42 -0.6 0 -0.4 -0.6 0 
-0.38 -0.6 0 -0.36 -0.6 0 -0.34 -0.6 0 
-0.32 -0.6 0 -0.3 -0.6 0 -0.28 -0.6 0 
-0.26 -0.6 0 -0.24 -0.6 0 -0.22 -0.6 0 
-0.2 -0.6 0 -0.18 -0.6 0 -0.16 -0.6 0 
-0.14 -0.6 0 -0.12 -0.6 0 -0.1 -0.6 0 
-0.08 -0.6 0 -0.06 -0.6 0 -0.04 -0.6 0 
-0.02 -0.6 0 -8.881784197e-16 -0.6 0 0.02 -0.6 0 
0.04 -0.6 0 0.06 -0.6 0 0.08 -0.6 0 
0.1 -0.6 0 0.12 -0.6 0 0.14 -0.6 0 
0.16 -0.6 0 0.18 -0.6 0 0.2 -0.6 0 
0.22 -0.6 0 0.24 -0.6 0 0.26 -0.6 0 
0.28 -0.6 0 0.3 -0.6 0 0.32 -0.6 0 
0.34 -0.6 0 0.36 -0.6 0 0.38 -0.6 0 
0.4 -0.6 0 0.42 -0.6 0 0.44 -0.6 0 
0.46 -0.6 0 0.48 -0.6 0 0.5 -0.6 0 
0.52 -0.6 0 0.54 -0.6 0 0.56 -0.6 0 
0.58 -0.6 0 0.6 -0.58 0 0.6 -0.56 0 
0.6 -0.54 0 0.6 -0.52 0 0.6 -0.5 0 
0.6 -0.48 0 0.6 -0.46 0 0.6 -0.44 0 
0.6 -0.42 0 0.6 -0.4 0 0.6 -0.38 0 
0.6 -0.36 0 0.6 -0.34 0 0.6 -0.32 0 
0.6 -0.3 0 0.6 -0.28 0 0.6 -0.26 0 
0.6 -0.24 0 0.6 -0.22 0 0.6 -0.2 0 
0.6 -0.18 0 0.6 -0.16 0 0.6 -0.14 0 
0.6 -0.12 0 0.6 -0.1 0 0.6 -0.08 0 
0.6 -0.06 0 0.6 -0.04 0 0.6 -0.02 0 
0.6 -8.881784197e-16 0 0.6 0.02 0 0.6 0.04 0 
0.6 0.06 0 0.6 0.08 0 0.6 0.1 0 
0.6 0.12 0 0.6 0.14 0 0.6 0.16 0 
0.6 0.18 0 0.6 0.2 0 0.6 0.22 0 
0.6 0.24 0 0.6 0.26 0 0.6 0.28 0 
0.6 0.3 0 0.6 0.32 0 0.6 0.34 0 
0.6 0.36 0 0.6 0.38 0 0.6 0.4 0 
0.6 0.42 0 0.6 0.44 0 0.6 0.46 0 
0.6 0.48 0 0.6 0.5 0 0.6 0.52 0 
0.6 0.54 0 0.6 0.56 0 0.6 0.58 0 
0.58 0.6 0 0.56 0.6 0 0.54 0.6 0 
0.52 0.6 0 0.5 0.6 0 0.48 0.6 0 
0.46 0.6 0 0.44 0.6 0 0.42 0.6 0 
0.4 0.6 0 0.38 0.6 0 0.36 0.6 0 
0.34 0.6 0 0.32 0.6 0 0.3 0.6 0 
0.28 0.6 0 0.26 0.6 0 0.24 0.6 0 
0.22 0.6 0 0.2 0.6 0 0.18 0.6 0 
0.16 0.6 0 0.14 0.6 0 0.12 0.6 0 
0.1 0.6 0 0.08 0.6 0 0.06 0.6 0 
0.04 0.6 0 0.02 0.6 0 8.881784197e-16 0.6 0 
-0.02 0.6 0 -0.04 0.6 0 -0.06 0.6 0 
-0.08 0.6 0 -0.1 0.6 0 -0.12 0.6 0 
-0.14 0.6 0 -0.16 0.6 0 -0.18 0.6 0 
-0.2 0.6 0 -0.22 0.6 0 -0.24 0.6 0 
-0.26 0.6 0 -0.28 0.6 0 -0.3 0.6 0 
-0.32 0.6 0 -0.34 0.6 0 -0.36 0.6 0 
-0.38 0.6 0 -0.4 0.6 0 -0.42 0.6 0 
-0.44 0.6 0 -0.46 0.6 0 -0.48 0.6 0 
-0.5 0.6 0 -0.52 0.6 0 -0.54 0.6 0 
-0.56 0.6 0 -0.58 0.6 0 -0.6 0.58 0 
-0.6 0.56 0 -0.6 0.54 0 -0.6 0.52 0 
-0.6 0.5 0 -0.6 0.48 0 -0.6 0.46 0 
-0.6 0.44 0 -0.6 0.42 0 -0.6 0.4 0 
-0.6 0.38 0 -0.6 0.36 0 -0.6 0.34 0 
-0.6 0.32 0 -0.6 0.3 0 -0.6 0.28 0 
-0.6 0.26 0 -0.6 0.24 0 -0.6 0.22 0 
-0.6 0.2 0 -0.6 0.18 0 -0.6 0.16 0 
-0.6 0.14 0 -0.6 0.12 0 -0.6 0.1 0 
-0.6 0.08 0 -0.6 0.06 0 -0.6 0.04 0 
-0.6 0.02 0 -0.6 8.881784197e-16 0 -0.6 -0.02 0 
-0.6 -0.04 0 -0.6 -0.06 0 -0.6 -0.08 0 
-0.6 -0.1 0 -0.6 -0.12 0 -0.6 -0.14 0 
-0.6 -0.16 0 -0.6 -0.18 0 -0.6 -0.2 0 
-0.6 -0.22 0 -0.6 -0.24 0 -0.6 -0.26 0 
-0.6 -0.28 0 -0.6 -0.3 0 -0.6 -0.32 0 
-0.6 -0.34 0 -0.6 -0.36 0 -0.6 -0.38 0 
-0.6 -0.4 0 -0.6 -0.42 0 -0.6 -0.44 0 
-0.6 -0.46 0 -0.6 -0.48 0 -0.6 -0.5 0 
-0.6 -0.52 0 -0.6 -0.54 0 -0.6 -0.56 0 
-0.6 -0.58 0 0.25 -0.58267949192 0 -0.25 -0.58267949192 0 
-0.24969338163 0.58271630631 0 0.58313820224 0.25089999788 0 -0.58073798855 0.23055415423 0 
0.23 0.58267949192 0 0.5822727489 -0.23023532651 0 -0.58232885758 -0.22986293355 0 
-0.13 -0.58267949192 0 0.58091085312 0.12866705289 0 -0.13050081 0.58443309409 0 
0.13 -0.58267949192 0 0.11 0.58267949192 0 0.58128887437 -0.11185352307 0 
-0.58641004823 0.11046978504 0 -0.58097603768 -0.11235367818 0 -0.01 0.5841811861 0 
0.01 -0.58267949192 0 0.58217507245 0.011050809949 0 -0.58206506685 -0.010494327869 0 
0.58255589861 -0.33012459525 0 -0.58098267687 0.33246863147 0 0.33 0.58267949192 0 
-0.58090018381 -0.32734039494 0 0.35 -0.58267949192 0 0.58210978525 0.34851718814 0 
-0.34984356206 0.58269328777 0 -0.35 -0.58267949192 0 -0.58404031657 -0.41125547479 0 
0.58404031657 -0.41125547479 0 0.41 0.58267949192 0 -0.58127371569 0.40748932397 0 
0.43 -0.58267949192 0 0.58287041801 0.42966930632 0 -0.43030661837 0.58271630631 0 
-0.43 -0.58267949192 0 0.49 0.58267949192 0 0.58119455181 -0.49272606834 0 
-0.58196591894 0.48785347999 0 -0.58132747275 -0.49216380446 0 0.58099079541 0.19297246443 0 
-0.18926154554 0.58413656679 0 0.05 0.58267949192 0 0.19 -0.58267949192 0 
-0.07 -0.58267949192 0 0.58212565717 -0.051217328366 0 -0.07 0.58267949192 0 
0.58245912871 0.070013739955 0 0.07 -0.58267949192 0 0.58168449499 -0.17128271923 0 
-0.58574378526 0.05125913651 0 0.17050081 0.58443309409 0 -0.58168449499 -0.17128271923 0 
-0.58573295936 0.16883725031 0 -0.19 -0.58267949192 0 0.49 -0.58267949192 0 
-0.49050081 0.58443309409 0 0.58415322569 0.48921568047 0 -0.49 -0.58267949192 0 
0.53 -0.58267949192 0 0.58203286059 0.53119351335 0 -0.53 0.58267949192 0 
-0.58222913959 -0.53018403998 0 0.58202539473 0.28969699417 0 -0.29 0.58267949192 0 
-0.58451963751 -0.45057023735 0 -0.58267949192 -0.07 0 -0.29 -0.58267949192 0 
-0.03 -0.58267949192 0 0.39 -0.58267949192 0 0.58307204747 0.39068583015 0 
-0.39 0.58373814012 0 0.29 -0.58267949192 0 0.58208722445 -0.45065236781 0 
0.45042926572 0.58129593389 0 -0.58211115223 0.44955595746 0 -0.58432719917 -0.36932980655 0 
-0.58406793967 -0.26883049013 0 0.5820526686 -0.36901719046 0 0.37 0.58267949192 0 
-0.5823078615 0.36998422007 0 -0.39 -0.58267949192 0 -0.58211498987 0.271305057 0 
-0.53 -0.58267949192 0 0.58222913959 -0.53018403998 0 0.53 0.58373814012 0 
-0.58219774606 0.53090792334 0 0.58030324732 -0.28813008885 0 0.29050081 0.58443309409 0 
-0.58188605505 -0.56816348762 0 0.56922649731 -0.58312607391 0 0.58067979276 0.57009350437 0 
-0.57009384201 0.58146184644 0 0.54987108288 -0.58275392226 0 0.53997851381 -0.5653713889 0 
0.51999641897 -0.56536105136 0 0.52999582213 -0.54804088787 0 0.50999870685 -0.54803922237 0 
0.51999908816 -0.53071849415 0 0.4999996325 -0.53071817987 0 0.50999978678 -0.51339758273 0 
0.48999990321 -0.5133975155 0 0.49999994833 -0.49607698138 0 0.47999997526 -0.49607696583 0 
0.48999998726 -0.47875645082 0 0.46999999375 -0.47875644708 0 0.47999999684 -0.46143593722 0 
0.45999999843 -0.4614359363 0 0.46999999921 -0.44411542777 0 0.44999999961 -0.44411542755 0 
0.4599999998 -0.42679491936 0 0.4399999999 -0.4267949193 0 0.44999999995 -0.4094744112 0 
0.42999999998 -0.40947441118 0 0.43999999999 -0.3921539031 0 0.41999999999 -0.3921539031 0 
0.43 -0.37483339502 0 0.41 -0.37483339502 0 0.42 -0.35751288694 0 
0.4 -0.35751288694 0 0.41 -0.34019237886 0 0.39 -0.34019237886 0 
0.4 -0.32287187079 0 0.38 -0.32287187079 0 0.39 -0.30555136271 0 
0.37 -0.30555136271 0 0.38 -0.28823085464 0 0.36 -0.28823085464 0 
0.37 -0.27091034656 0 0.35 -0.27091034656 0 0.36 -0.25358983849 0 
0.34 -0.25358983849 0 0.35 -0.23626933041 0 0.33 -0.27091034656 0 
0.32 -0.25358983849 0 0.31 -0.27091034656 0 0.3 -0.25358983849 0 
0.29 -0.27091034656 0 0.28 -0.25358983849 0 0.27 -0.27091034656 0 
0.26 -0.25358983849 0 0.25 -0.27091034656 0 0.27 -0.23626933041 0 
0.24 -0.25358983849 0 0.23 -0.27091034656 0 0.22 -0.25358983849 0 
0.21 -0.27091034656 0 0.2 -0.25358983849 0 0.19 -0.27091034656 0 
0.18 -0.25358983849 0 0.17 -0.27091034656 0 0.19 -0.23626933041 0 
0.16 -0.25358983849 0 0.15 -0.27091034656 0 0.14 -0.25358983849 0 
0.13 -0.27091034656 0 0.12 -0.25358983849 0 0.11 -0.27091034656 0 
0.1 -0.25358983849 0 0.09 -0.27091034656 0 0.08 -0.25358983849 0 
0.07 -0.27091034656 0 0.06 -0.25358983849 0 0.05 -0.27091034656 0 
0.04 -0.25358983849 0 0.03 -0.27091034656 0 0.02 -0.25358983849 0 
0.01 -0.27091034656 0 -1.7474921972e-14 -0.25358983849 0 -0.01 -0.27091034656 0 
-0.02 -0.25358983849 0 -0.03 -0.27091034656 0 -0.04 -0.25358983849 0 
-0.05 -0.27091034656 0 -0.06 -0.25358983849 0 -0.07 -0.27091034656 0 
-0.08 -0.25358983849 0 -0.09 -0.27091034656 0 -0.1 -0.25358983849 0 
-0.11 -0.27091034656 0 -0.12 -0.25358983849 0 -0.13 -0.27091034656 0 
-0.14 -0.25358983849 0 -0.15 -0.27091034656 0 -0.16 -0.25358983849 0 
-0.17 -0.27091034656 0 -0.18 -0.25358983849 0 -0.19 -0.27091034656 0 
-0.2 -0.25358983849 0 -0.21 -0.27091034656 0 -0.22 -0.25358983849 0 
-0.21 -0.23626933041 0 -0.23 -0.23626933041 0 -0.22 -0.21894882233 0 
-0.23 -0.27091034656 0 -0.24 -0.21894882233 0 -0.23 -0.20162831426 0 
-0.25 -0.20162831426 0 -0.24 -0.18430780618 0 -0.26 -0.18430780618 0 
-0.25 -0.16698729811 0 -0.27 -0.16698729811 0 -0.26 -0.14966679003 0 
-0.27 -0.20162831426 0 -0.28 -0.14966679003 0 -0.27 -0.13234628196 0 
-0.29 -0.13234628196 0 -0.28 -0.11502577388 0 -0.3 -0.11502577388 0 
-0.29 -0.097705265805 0 0.22 -0.28823085464 0 0.1 -0.28823085464 0 
-0.1 -0.28823085464 0 -0.22 -0.28823085464 0 -0.24 -0.28823085464 0 
0.02 -0.28823085464 0 -0.31 -0.13234628196 0 -0.31 -0.097705265805 0 
-0.3 -0.080384757729 0 -0.28 -0.080384757729 0 -0.29 -0.063064249654 0 
-0.31 -0.063064249654 0 -0.3 -0.045743741578 0 -0.28 -0.045743741578 0 
-0.29 -0.028423233502 0 -0.27 -0.028423233502 0 -0.28 -0.011102725427 0 
-0.3 -0.011102725427 0 -0.29 0.0062177826491 0 -0.27 0.0062177826491 0 
-0.28 0.023538290725 0 -0.26 0.023538290725 0 -0.27 0.0408587988 0 
-0.25 0.0408587988 0 -0.26 0.058179306876 0 -0.24 0.058179306876 0 
-0.25 0.075499814952 0 -0.23 0.075499814952 0 -0.24 0.092820323028 0 
-0.22 0.092820323028 0 -0.23 0.1101408311 0 -0.21 0.1101408311 0 
-0.22 0.12746133918 0 -0.2 0.12746133918 0 -0.21 0.14478184725 0 
-0.19 0.14478184725 0 -0.2 0.16210235533 0 -0.18 0.16210235533 0 
-0.19 0.17942286341 0 -0.17 0.17942286341 0 -0.21 0.17942286341 0 
-0.2 0.19674337148 0 -0.22 0.19674337148 0 -0.21 0.21406387956 0 
-0.23 0.21406387956 0 -0.22 0.23138438763 0 -0.24 0.23138438763 0 
-0.23 0.24870489571 0 -0.21 0.24870489571 0 -0.25 0.24870489571 0 
-0.27 0.075499814952 0 -0.22 0.26602540378 0 -0.2 0.26602540378 0 
-0.21 0.28334591186 0 -0.19 0.28334591186 0 -0.31 0.0062177826491 0 
-0.23 -0.16698729811 0 0.11 -0.23626933041 0 -0.2 0.30066641994 0 
-0.18 0.30066641994 0 -0.23 -0.30555136271 0 -0.25 -0.30555136271 0 
0.39 -0.37483339502 0 -0.09 -0.23626933041 0 -0.19 0.31798692801 0 
[...]
CELL_DATA 8442
FIELD FieldData 1
radiation%20flux%20density 1 8442 double
0.023075686389 0.023075686389 0.023075686389 0.023075686389 0.023075686389 0.023075686389 0.023075686389 0.023075686389 0.023075686389 
0.023075686389 0.023075686389 0.023075686389 0.023075686389 0.023075686389 0.023075686389 0.023075686389 0.023075686389 0.023075686389 
0.023075686389 0.023075686389 0.023075686389 0.023075686389 0.023075686389 0.023075686389 0.023075686389 0.023075686389 0.023075686389 
0.023075686389 0.023075686389 0.023075686389 0.023075686389 0.023075686389 0.023075686389 0.023075686389 0.023075686389 0.023075686389 
0.023075686389 0.023075686389 0.023075686389 0.023075686389 0.023075686389 0.023075686389 0.023075686389 0.023075686389 0.023075686389 
0.023075686389 0.023075686389 0.023075686389 0.023075686389 0.023075686389 0.023075686389 0.023075686389 0.023075686389 0.023075686389 
0.023075686389 0.023075686389 0.023075686389 0.023075686389 0.023075686389 0.023075686389 0.023075686389 8.5664566764e-227 0.023075686389 
1.4133053486e-117 0.023075686389 0.023075686389 0.023075686389 0.023075686389 4.2682051544e-138 0.023075686389 0.023075686389 0.023075686389 
0.023075686389 1.4876947905e-119 0.023075686389 0.023075686389 0.023075686389 0.023075686389 0.023075686389 0.023075686389 0.023075686389 
0.023075686389 0.023075686389 0.023075686389 0.023075686389 0.023075686389 0.023075686389 0.023075686389 0.023075686389 2.6668987008e-124 
2.6668987008e-124 0.023075686389 0.023075686389 0.023075686389 0.023075686389 0.023075686389 0.023075686389 0.023075686389 0.023075686389 
0.023075686389 0.023075686389 0.023075686389 0.023075686389 0.023075686389 0.023075686389 0.023075686389 0.023075686389 0.023075686389 
0.023075686389 0.023075686389 0.023075686389 0.023075686389 0.023075686389 0.023075686389 0.023075686389 0.023075686389 0.023075686389 
0.023075686389 0.023075686389 0.023075686389 0.023075686389 0.023075686389 0.023075686389 0.023075686389 0.023075686389 0.023075686389 
0.023075686389 0.023075686389 0.023075686389 0.023075686389 0.023075686389 0.023075686389 0.023075686389 0.023075686389 0.023075686389 
0.023075686389 0.023075686389 0.023075686389 0.023075686389 0.023075686389 0.023075686389 45.22975407 45.217584432 0.023075686389 
0.023075686389 0.023075686389 0.023075686389 0.023075686389 0.023075686389 0.023075686389 0.023075686389 0.023075686389 0.023075686389 
0.023075686389 0.023075686389 0.023075686389 0.023075686389 0.023075686389 0.023075686389 0.023075686389 0.023075686389 0.023075686389 
0.023075686389 0.023075686389 0.023075686389 0.023075686389 0.023075686389 0.023075686389 0.023075686389 0.023075686389 0.023075686389 
0.023075686389 0.023075686389 45.189669151 45.191796397 0.023075686389 45.179883158 45.174791316 0.023075686389 0.023075686389 
0.023075686389 0.023075686389 0.023075686389 0.023075686389 0.023075686389 0.023075686389 0.023075686389 0.023075686389 0.023075686389 
0.023075686389 0.023075686389 0.023075686389 0.023075686389 0.023075686389 0.023075686389 0.023075686389 0.023075686389 0.023075686389 
0.023075686389 0.023075686389 0.023075686389 0.023075686389 0.023075686389 0.023075686389 0.023075686389 0.023075686389 0.023075686389 
0.023075686389 0.023075686389 0.023075686389 0.023075686389 0.023075686389 0.023075686389 0.023075686389 0.023075686389 0.023075686389 
0.023075686389 0.023075686389 0.023075686389 0.023075686389 0.023075686389 0.023075686389 0.023075686389 0.023075686389 0.023075686389 
0.023075686389 0.023075686389 0.68258158991 0.1615378127 0.3457915971 0.29866849949 0.51496769847 0.023075686389 0.25240910839 
0.023075686389 0.023075686389 0.023075686389 0.023075686389 0.023075686389 0.093804648442 0.23704954397 0.2383444957 0.48683359492 
0.023075686389 1.5272974035 0.2260683032 0.023075686389 0.12656517485 0.023075686389 0.28312215816 0.023075686389 0.023075686389 
0.023075686389 0.023075686389 0.023075686389 0.023075686389 0.023075686389 0.023075686389 0.023075686389 0.023075686389 0.023075686389 
0.023075686389 0.13956461726 0.30230566629 0.3526233626 0.023075686389 0.023075686389 0.14689381604 0.023075686389 0.14413268114 
0.023075686389 0.023075686389 0.023075686389 0.28751184827 0.023075686389 0.031545538564 0.2619382123 0.023075686389 0.023075686389 
0.023075686389 0.023075686389 0.023075686389 0.023075686389 0.023075686389 0.1416233308 0.023075686389 0.023075686389 0.023075686389 
0.023075686389 0.023075686389 0.023075686389 0.092209638695 0.023075686389 0.023075686389 0.023075686389 0.023075686389 0.25125433445 
0.35462464659 38.282983488 51.330512918 0.023075686389 0.087443612187 0.023075686389 9.0841731173 0.023075686389 0.023075686389 
0.023075686389 0.023075686389 0.023075686389 0.023075686389 0.42814173208 0.023075686389 0.023075686389 0.023075686389 37.198564411 
0.023075686389 0.023075686389 0.023075686389 0.030045804415 0.023075686389 0.023075686389 0.023075686389 0.71300441342 0.054496984628 
0.023075686389 0.023075686389 0.06157077564 0.38083189004 31.964283482 0.023075686389 33.834450526 0.42188258026 0.023075686389 
0.023075686389 0.023075686389 0.023075686389 34.764537024 0.023075686389 31.522438742 39.739200813 0.023075686389 28.170620358 
0.023075686389 43.643686101 0.43155121826 39.061721184 54.233807296 0.18066501457 0.15398487711 0.15600444294 0.023075686389 
36.25723803 0.023075686389 0.023075686389 0.023075686389 0.023075686389 0.023075686389 32.145107781 37.703413076 0.023075686389 
0.023075686389 42.025432533 0.023075686389 0.023075686389 0.30230894831 2.387850536 27.555917581 0.83989118592 0.023075686389 
1.6346407062 0.023075686389 0.023075686389 1.453854696 0.1746527943 20.36458385 0.82771530868 0.75155015797 0.10335955356 
0.023075686389 2.6191647936 0.023075686389 0.023075686389 4.5143294221 0.023075686389 0.023075686389 0.095229445901 0.023075686389 
0.023075686389 0.023075686389 0.023075686389 26.405772316 19.633217775 0.023075686389 0.023075686389 0.023075686389 0.023075686389 
0.023075686389 0.023075686389 0.023075686389 10.416805711 0.14689306656 0.75475346326 1.3065988837 0.023075686389 0.023075686389 
14.898039454 0.023075686389 0.023075686389 0.023075686389 0.023075686389 0.023075686389 36.636300285 0.023075686389 0.023075686389 
0.023075686389 34.782727816 7.4770242751 0.023075686389 0.023075686389 0.3777777123 33.015041751 32.820256112 0.023075686389 
0.023075686389 0.023075686389 0.023075686389 0.049535337691 51.877281425 0.14416554867 0.023075686389 0.023075686389 0.023075686389 
0.023075686389 0.023075686389 0.023075686389 0.023075686389 9.9845264663 0.023075686389 0.023075686389 0.023075686389 0.023075686389 
0.023075686389 30.880491149 29.196366337 38.810266207 0.023075686389 0.023075686389 0.023075686389 0.023075686389 0.023075686389 
0.023075686389 0.023075686389 0.35688492721 0.0489859193 0.023075686389 27.708144268 0.023075686389 0.23088513787 0.023075686389 
0.023075686389 27.878778258 0.28920684532 0.023075686389 33.116356379 38.925552001 10.320468977 0.023075686389 29.119391492 
29.339059313 0.14162335522 0.023075686389 0.023075686389 0.71967189669 0.023075686389 0.023075686389 1.2649132838 34.320003728 
27.317348642 0.15552972775 31.431171615 0.023075686389 0.023075686389 0.023075686389 0.3835338762 37.062974132 0.023075686389 
33.079132139 51.933945064 0.023075686389 0.023075686389 44.257472969 25.879583798 0.023075686389 29.112641585 0.023075686389 
45.702361989 0.023075686389 9.5256847621 17.363152557 40.771444106 0.023075686389 0.60752217576 48.431091988 12.052387341 
0.023075686389 0.023075686389 34.217205755 0.023075686389 33.965384049 34.364407434 0.023075686389 0.023075686389 0.023075686389 
0.023075686389 40.265900037 1.5785263003 0.055606622628 0.088119401234 18.412753674 33.93138675 0.023075686389 0.023075686389 
0.023075686389 7.3543832409 0.023075686389 0.023075686389 29.904664018 33.254698806 0.023075686389 0.023075686389 0.61170869242 
0.023075686389 42.226804929 0.023075686389 0.023075686389 45.751337413 0.023075686389 0.037645120825 0.34964755865 0.51218869342 
0.10997041584 0.023075686389 9.9840453033 52.472299609 0.078415339021 0.023075686389 3.3476664672 0.023075686389 0.023075686389 
0.023075686389 0.023075686389 0.023075686389 0.13956248318 8.3565577795 0.023075686389 0.023075686389 0.023075686389 52.088887199 
15.427440369 24.776947446 0.023075686389 0.023075686389 24.313166821 0.023075686389 35.075725341 0.023075686389 0.097192058298 
0.023075686389 0.023075686389 0.023075686389 2.2403307398 13.539526042 31.714259371 33.833944893 0.023075686389 0.2516692585 
0.023075686389 2.1347079259 36.539872868 0.023075686389 53.819109808 0.023075686389 0.023075686389 7.4858129605 0.03003145479 
0.023075686389 3.0000592124 53.780024063 27.596407079 0.2304286892 1.5859188934 0.023075686389 50.576376052 5.3582784171 
0.023075686389 44.504734763 0.023075686389 36.022850608 0.023075686389 25.93553222 0.023075686389 0.023075686389 0.023075686389 
0.11694749572 25.88782382 0.023075686389 0.023075686389 0.023075686389 6.7694778932 0.023075686389 4.5210159284 0.023075686389 
0.023075686389 0.023075686389 30.450588361 0.023075686389 0.023075686389 0.023075686389 0.023075686389 0.036157315521 0.086829833083 
0.023075686389 0.023075686389 0.23834517583 0.12656410786 0.023075686389 0.023075686389 24.556802829 1.6107070511 0.45448995068 
0.34949217943 2.9240463266 0.023075686389 0.023075686389 0.023075686389 25.225826832 0.023075686389 44.684768013 0.023075686389 
30.433667236 35.060809723 15.223990787 44.728130166 0.023075686389 0.023075686389 0.83914006483 40.040929254 0.023075686389 
0.023075686389 0.023075686389 0.023075686389 0.64462445012 42.924542726 13.101920858 0.023075686389 52.765262526 0.023075686389 
0.023075686389 0.023075686389 0.023075686389 41.446016891 0.023075686389 5.2617771985 0.023075686389 0.023075686389 0.023075686389 
0.023075686389 0.20092104471 0.078748834062 0.023075686389 0.023075686389 0.023075686389 0.023075686389 0.023075686389 45.825650134 
0.023075686389 0.2755279798 0.023075686389 27.751118826 0.023075686389 0.023075686389 0.023075686389 0.023075686389 0.023075686389 
19.204444313 8.7525684415 0.023075686389 0.023075686389 0.023075686389 0.15698373879 0.023075686389 0.023075686389 0.27196155054 
0.023075686389 38.123810925 0.023075686389 0.023075686389 27.447967095 14.098764566 1.6363031884 0.023075686389 0.023075686389 
0.054945675036 0.023075686389 28.88072192 0.023075686389 5.6760834432 0.023075686389 3.6447803035 0.71499668288 0.023075686389 
0.059379548842 0.29379667862 0.023075686389 0.023075686389 5.4520201234 0.081801705794 13.219012187 0.023075686389 5.4093795521 
0.023075686389 26.144400533 0.023075686389 0.023075686389 0.023075686389 0.023075686389 0.023075686389 41.649152701 39.270076525 
1.3166223684 1.0999577033 0.023075686389 0.023075686389 0.023075686389 1.145348353e-219 0.76917364501 0.023075686389 0.023075686389 
0.95306464941 27.495826339 28.913712291 4.7302514121 0.029358254809 25.056341353 0.023075686389 0.12941870235 37.31656625 
0.023075686389 0.023075686389 41.609075774 0.51988541595 0.023075686389 0.28751377602 35.076978759 0.023075686389 0.065734024498 
42.452732284 0.023075686389 43.886386957 0.023075686389 31.087139503 0.023075686389 0.023075686389 1.7127924338 0.023075686389 
45.422511948 44.902731531 3.0891705155 0.023075686389 33.535336545 2.6994072084 0.11560383081 0.023075686389 0.023075686389 
22.320858251 0.023075686389 35.31530599 0.023075686389 44.38357505 0.023075686389 1.9458420133 0.023075686389 0.023075686389 
0.25690787061 0.023075686389 0.023075686389 0.023075686389 0.023075686389 46.582693021 0.023075686389 2.2816415004 2.8379596926 
0.023075686389 36.11581997 0.023075686389 0.023075686389 0.32239662415 2.4612525756 0.023075686389 38.885436383 0.023075686389 
0.023075686389 0.023075686389 29.166781168 0.023075686389 0.023075686389 0.023075686389 0.023075686389 0.023075686389 0.78920680063 
37.149570899 0.023075686389 0.023075686389 0.023075686389 0.023075686389 9.7687535229 0.023075686389 0.64626472231 0.023075686389 
0.023075686389 0.023075686389 0.023075686389 35.659584711 0.023075686389 0.023075686389 0.023075686389 22.040774463 28.577421874 
0.023075686389 0.60617699153 0.35266308154 0.095726956483 38.368834017 0.023075686389 7.727445632 0.04217050386 0.023075686389 
0.023075686389 28.071748432 0.023075686389 6.896608941 3.0273439054 0.023075686389 34.104473459 0.023075686389 0.023075686389 
3.1280892626 0.023075686389 0.2515906054 0.023075686389 0.023075686389 0.023075686389 0.023075686389 0.023075686389 0.023075686389 
0.023075686389 0.023075686389 0.023075686389 0.023075686389 0.023075686389 0.023075686389 0.023075686389 0.023075686389 0.023075686389 
0.023075686389 0.98225260153 0.023075686389 0.023075686389 0.023075686389 0.023075686389 0.023075686389 30.429253409 0.023075686389 
1.6693716395 0.072038273105 0.023075686389 3.040095327 0.51604555151 0.1930665929 5.6046265094 0.37893906406 0.023075686389 
28.212675377 0.023075686389 14.823236594 0.023075686389 35.435722237 46.573556172 0.023075686389 0.023075686389 0.023075686389 
0.023075686389 0.2395493633 0.023075686389 32.328688924 0.023075686389 0.023075686389 43.948069208 0.023075686389 0.35701505444 
0.023075686389 0.023075686389 0.023075686389 45.17210834 0.023075686389 0.023075686389 0.023075686389 47.46695912 0.023075686389 
1.2239238064 30.871662348 0.023075686389 0.023075686389 0.023075686389 0.023075686389 2.051227317 0.023075686389 0.28312471394 
28.645830948 0.023075686389 1.2924819146 0.472723065 31.714258052 21.763852849 2.9583570346 3.5234180975 0.023075686389 
1.6168711593 14.948001093 0.63395286669 0.023075686389 0.023075686389 44.799226139 0.023075686389 0.062898131959 0.023075686389 
0.023075686389 0.023075686389 0.023075686389 0.023075686389 0.023075686389 7.3292715298 0.52044455007 0.023075686389 0.023075686389 
0.023075686389 0.023075686389 0.023075686389 0.023075686389 0.023075686389 0.023075686389 0.023075686389 0.023075686389 40.173092424 
0.023075686389 0.023075686389 0.023075686389 0.023075686389 0.023075686389 9.1840627645 0.023075686389 0.023075686389 0.023075686389 
0.023075686389 40.259361375 0.023075686389 1.6345321661 0.023075686389 0.023075686389 25.53987245 0.023075686389 14.723307159 
1.2217318574 0.023075686389 34.157739514 0.86758403254 32.858669756 0.023075686389 35.932986547 37.71759772 31.688699424 
12.178508047 12.063672011 45.272875899 39.516893846 7.4099475906 0.023075686389 39.250385304 0.023075686389 0.023075686389 
0.023075686389 0.023075686389 0.023075686389 0.023075686389 0.023075686389 0.023075686389 11.786075803 45.497093566 0.023075686389 
0.023075686389 26.890374657 0.079874685064 0.043913530538 0.023075686389 0.023075686389 0.023075686389 0.023075686389 32.855622958 
0.023075686389 1.2379764854 0.023075686389 41.034301951 0.023075686389 0.023075686389 1.3016315044 0.023075686389 0.023075686389 
0.023075686389 0.023075686389 0.023075686389 0.023075686389 12.443685607 0.70959707061 46.700769912 0.023075686389 4.5200310525 
6.9148594217 0.023075686389 33.755646574 42.211328852 0.023075686389 39.07301438 52.753382981 0.023075686389 0.023075686389 
0.023075686389 0.023075686389 0.023075686389 0.023075686389 38.290768674 0.023075686389 37.152755889 0.94764114519 0.023075686389 
0.023075686389 42.95889178 0.023075686389 44.864909459 0.023075686389 0.023075686389 0.023075686389 0.34057815831 0.023075686389 
0.023075686389 0.023075686389 0.023075686389 0.023075686389 0.023075686389 0.023075686389 0.023075686389 0.023075686389 0.023075686389 
0.023075686389 0.023075686389 0.023075686389 0.023075686389 11.511511635 0.023075686389 0.023075686389 0.023075686389 0.023075686389 
0.19019325361 0.023075686389 0.023075686389 4.147189401 42.59593238 0.023075686389 0.023075686389 17.971599497 1.5267827278 
45.189272129 7.4489363553e-205 2.7473195656e-205 0.023075686389 0.023075686389 31.314531805 2.0569409222 26.226678002 0.46682025784 
11.500183085 0.023075686389 53.754653956 0.023075686389 27.040305008 0.023075686389 44.340185432 28.464164949 2.3879316587 
47.008907044 0.023075686389 29.933977802 0.023075686389 0.023075686389 50.994689653 0.023075686389 0.056092602278 0.023075686389 
48.854462961 0.023075686389 0.023075686389 42.767460251 4.3862066092 0.023075686389 0.023075686389 26.865497935 0.023075686389 
0.023075686389 0.023075686389 0.023075686389 0.53314542355 9.4089975085e-220 11.75410022 0.023075686389 0.023075686389 17.297177826 
0.023075686389 0.023075686389 46.380721646 0.023075686389 0.023075686389 1.1842378547 0.023075686389 0.023075686389 0.023075686389 
0.023075686389 0.023075686389 0.023075686389 0.023075686389 36.057673354 1.5268656859 0.023075686389 44.601068936 0.023075686389 
0.023075686389 25.544249719 0.023075686389 1.5013719963 0.023075686389 0.023075686389 0.023075686389 0.023075686389 0.023075686389 
0.023075686389 0.023075686389 0.023075686389 0.10893132135 0.023075686389 0.023075686389 42.574092056 27.658975423 0.023075686389 
23.009966838 25.856990197 0.023075686389 24.58021325 27.026825482 0.023075686389 25.586823027 0.023075686389 30.424245558 
1.1943564629 0.023075686389 0.023075686389 33.191751069 0.023075686389 0.023075686389 31.377340348 0.023075686389 0.036100036192 
0.023075686389 0.023075686389 0.023075686389 0.023075686389 37.865119424 40.793894435 39.832523853 0.023075686389 41.299101273 
0.023075686389 0.023075686389 0.023075686389 0.023075686389 0.023075686389 0.023075686389 0.023075686389 25.544457099 0.023075686389 
0.023075686389 0.023075686389 0.14984698339 0.023075686389 30.312373508 0.023075686389 33.278470316 0.023075686389 0.023075686389 
0.023075686389 25.543336746 37.154185622 0.023075686389 0.023075686389 0.023075686389 0.023075686389 0.023075686389 0.023075686389 
0.023075686389 0.61712839931 0.023075686389 0.023075686389 0.023075686389 29.295428825 0.023075686389 28.186425753 0.023075686389 
0.023075686389 0.023075686389 0.023075686389 0.023075686389 0.023075686389 0.057733777733 0.023075686389 0.023075686389 0.023075686389 
0.023075686389 0.023075686389 0.023075686389 0.023075686389 0.023075686389 0.023075686389 0.023075686389 0.023075686389 0.023075686389 
0.057594256527 4.5090960021 0.023075686389 0.023075686389 30.670045694 0.023075686389 0.023075686389 0.023075686389 1.2629798687 
0.85447321751 0.023075686389 0.11566085131 7.4008007968 38.335757459 46.182870828 0.023075686389 0.023075686389 0.023075686389 
0.023075686389 0.10678279222 0.023075686389 0.079870420872 0.023075686389 33.556731441 33.727851067 0.023075686389 0.023075686389 
0.023075686389 0.023075686389 0.023075686389 43.443942521 27.758684564 0.023075686389 0.827358273 0.023075686389 30.777577669 
0.023075686389 0.023075686389 0.023075686389 40.369264855 0.035592403662 0.023075686389 0.51333333767 0.023075686389 0.023075686389 
0.023075686389 0.023075686389 17.08991357 0.023075686389 0.023075686389 0.023075686389 0.56497574543 0.023075686389 0.023075686389 
38.86201626 0.023075686389 32.353630843 0.72241159061 0.023075686389 0.023075686389 0.023075686389 29.68464483 0.023075686389 
0.023075686389 0.071821080949 0.023075686389 0.023075686389 1.7368130045e-163 4.350554627e-163 1.4479562736e-163 0.023075686389 35.266466893 
35.441144438 0.023075686389 0.023075686389 0.023075686389 0.023075686389 21.844485986 0.023075686389 0.023075686389 0.023075686389 
0.023075686389 47.255819922 0.023075686389 26.897930656 0.023075686389 0.11992653917 0.023075686389 29.963890993 31.091570522 
0.023075686389 0.023075686389 0.023075686389 0.61759237378 0.023075686389 0.75978890045 0.023075686389 0.023075686389 0.023075686389 
0.023075686389 0.023075686389 0.023075686389 0.023075686389 0.57500844635 27.224750822 24.766853195 25.99711978 0.023075686389 
38.062551282 0.98701557154 0.033409359916 33.188177946 0.023075686389 0.023075686389 0.023075686389 0.023075686389 0.023075686389 
0.023075686389 0.023075686389 0.023075686389 45.568158784 0.023075686389 39.229568013 0.023075686389 30.819415783 0.023075686389 