# vtk DataFile Version 4.2
vtk output
ASCII
DATASET UNSTRUCTURED_GRID
POINTS 4342 double
-0.6 -0.6 0 0.6 -0.6 0 0.6 0.6 0 
-0.6 0.6 0 0 0 0 -0.58 -0.6 0 
-0.56 -0.6 0 -0.54 -0.6 0 -0.52 -0.6 0 
-0.5 -0.6 0 -0.48 -0.6 0 -0.46 -0.6 0 
-0.44 -0.6 0 -0.42 -0.6 0 -0.4 -0.6 0 
-0.38 -0.6 0 -0.36 -0.6 0 -0.34 -0.6 0 
-0.32 -0.6 0 -0.3 -0.6 0 -0.28 -0.6 0 
-0.26 -0.6 0 -0.24 -0.6 0 -0.22 -0.6 0 
-0.2 -0.6 0 -0.18 -0.6 0 -0.16 -0.6 0 
-0.14 -0.6 0 -0.12 -0.6 0 -0.1 -0.6 0 
-0.08 -0.6 0 -0.06 -0.6 0 -0.04 -0.6 0 
-0.02 -0.6 0 -8.881784197e-16 -0.6 0 0.02 -0.6 0 
0.04 -0.6 0 0.06 -0.6 0 0.08 -0.6 0 
0.1 -0.6 0 0.12 -0.6 0 0.14 -0.6 0 
0.16 -0.6 0 0.18 -0.6 0 0.2 -0.6 0 
0.22 -0.6 0 0.24 -0.6 0 0.26 -0.6 0 
0.28 -0.6 0 0.3 -0.6 0 0.32 -0.6 0 
0.34 -0.6 0 0.36 -0.6 0 0.38 -0.6 0 
0.4 -0.6 0 0.42 -0.6 0 0.44 -0.6 0 
0.46 -0.6 0 0.48 -0.6 0 0.5 -0.6 0 
0.52 -0.6 0 0.54 -0.6 0 0.56 -0.6 0 
0.58 -0.6 0 0.6 -0.58 0 0.6 -0.56 0 
0.6 -0.54 0 0.6 -0.52 0 0.6 -0.5 0 
0.6 -0.48 0 0.6 -0.46 0 0.6 -0.44 0 
0.6 -0.42 0 0.6 -0.4 0 0.6 -0.38 0 
0.6 -0.36 0 0.6 -0.34 0 0.6 -0.32 0 
0.6 -0.3 0 0.6 -0.28 0 0.6 -0.26 0 
0.6 -0.24 0 0.6 -0.22 0 0.6 -0.2 0 
0.6 -0.18 0 0.6 -0.16 0 0.6 -0.14 0 
0.6 -0.12 0 0.6 -0.1 0 0.6 -0.08 0 
0.6 -0.06 0 0.6 -0.04 0 0.6 -0.02 0 
0.6 -8.881784197e-16 0 0.6 0.02 0 0.6 0.04 0 
0.6 0.06 0 0.6 0.08 0 0.6 0.1 0 
0.6 0.12 0 0.6 0.14 0 0.6 0.16 0 
0.6 0.18 0 0.6 0.2 0 0.6 0.22 0 
0.6 0.24 0 0.6 0.26 0 0.6 0.28 0 
0.6 0.3 0 0.6 0.32 0 0.6 0.34 0 
0.6 0.36 0 0.6 0.38 0 0.6 0.4 0 
0.6 0.42 0 0.6 0.44 0 0.6 0.46 0 
0.6 0.48 0 0.6 0.5 0 0.6 0.52 0 
0.6 0.54 0 0.6 0.56 0 0.6 0.58 0 
0.58 0.6 0 0.56 0.6 0 0.54 0.6 0 
0.52 0.6 0 0.5 0.6 0 0.48 0.6 0 
0.46 0.6 0 0.44 0.6 0 0.42 0.6 0 
0.4 0.6 0 0.38 0.6 0 0.36 0.6 0 
0.34 0.6 0 0.32 0.6 0 0.3 0.6 0 
0.28 0.6 0 0.26 0.6 0 0.24 0.6 0 
0.22 0.6 0 0.2 0.6 0 0.18 0.6 0 
0.16 0.6 0 0.14 0.6 0 0.12 0.6 0 
0.1 0.6 0 0.08 0.6 0 0.06 0.6 0 
0.04 0.6 0 0.02 0.6 0 8.881784197e-16 0.6 0 
-0.02 0.6 0 -0.04 0.6 0 -0.06 0.6 0 
-0.08 0.6 0 -0.1 0.6 0 -0.12 0.6 0 
-0.14 0.6 0 -0.16 0.6 0 -0.18 0.6 0 
-0.2 0.6 0 -0.22 0.6 0 -0.24 0.6 0 
-0.26 0.6 0 -0.28 0.6 0 -0.3 0.6 0 
-0.32 0.6 0 -0.34 0.6 0 -0.36 0.6 0 
-0.38 0.6 0 -0.4 0.6 0 -0.42 0.6 0 
-0.44 0.6 0 -0.46 0.6 0 -0.48 0.6 0 
-0.5 0.6 0 -0.52 0.6 0 -0.54 0.6 0 
-0.56 0.6 0 -0.58 0.6 0 -0.6 0.58 0 
-0.6 0.56 0 -0.6 0.54 0 -0.6 0.52 0 
-0.6 0.5 0 -0.6 0.48 0 -0.6 0.46 0 
-0.6 0.44 0 -0.6 0.42 0 -0.6 0.4 0 
-0.6 0.38 0 -0.6 0.36 0 -0.6 0.34 0 
-0.6 0.32 0 -0.6 0.3 0 -0.6 0.28 0 
-0.6 0.26 0 -0.6 0.24 0 -0.6 0.22 0 
-0.6 0.2 0 -0.6 0.18 0 -0.6 0.16 0 
-0.6 0.14 0 -0.6 0.12 0 -0.6 0.1 0 
-0.6 0.08 0 -0.6 0.06 0 -0.6 0.04 0 
-0.6 0.02 0 -0.6 8.881784197e-16 0 -0.6 -0.02 0 
-0.6 -0.04 0 -0.6 -0.06 0 -0.6 -0.08 0 
-0.6 -0.1 0 -0.6 -0.12 0 -0.6 -0.14 0 
-0.6 -0.16 0 -0.6 -0.18 0 -0.6 -0.2 0 
-0.6 -0.22 0 -0.6 -0.24 0 -0.6 -0.26 0 
-0.6 -0.28 0 -0.6 -0.3 0 -0.6 -0.32 0 
-0.6 -0.34 0 -0.6 -0.36 0 -0.6 -0.38 0 
-0.6 -0.4 0 -0.6 -0.42 0 -0.6 -0.44 0 
-0.6 -0.46 0 -0.6 -0.48 0 -0.6 -0.5 0 
-0.6 -0.52 0 -0.6 -0.54 0 -0.6 -0.56 0 
-0.6 -0.58 0 0.25 -0.58267949192 0 -0.25 -0.58267949192 0 
-0.24969338163 0.58271630631 0 0.58313820224 0.25089999788 0 -0.58073798855 0.23055415423 0 
0.23 0.58267949192 0 0.5822727489 -0.23023532651 0 -0.58232885758 -0.22986293355 0 
-0.13 -0.58267949192 0 0.58091085312 0.12866705289 0 -0.13050081 0.58443309409 0 
0.13 -0.58267949192 0 0.11 0.58267949192 0 0.58128887437 -0.11185352307 0 
-0.58641004823 0.11046978504 0 -0.58097603768 -0.11235367818 0 -0.01 0.5841811861 0 
0.01 -0.58267949192 0 0.58217507245 0.011050809949 0 -0.58206506685 -0.010494327869 0 
0.58255589861 -0.33012459525 0 -0.58098267687 0.33246863147 0 0.33 0.58267949192 0 
-0.58090018381 -0.32734039494 0 0.35 -0.58267949192 0 0.58210978525 0.34851718814 0 
-0.34984356206 0.58269328777 0 -0.35 -0.58267949192 0 -0.58404031657 -0.41125547479 0 
0.58404031657 -0.41125547479 0 0.41 0.58267949192 0 -0.58127371569 0.40748932397 0 
0.43 -0.58267949192 0 0.58287041801 0.42966930632 0 -0.43030661837 0.58271630631 0 
-0.43 -0.58267949192 0 0.49 0.58267949192 0 0.58119455181 -0.49272606834 0 
-0.58196591894 0.48785347999 0 -0.58132747275 -0.49216380446 0 0.58099079541 0.19297246443 0 
-0.18926154554 0.58413656679 0 0.05 0.58267949192 0 0.19 -0.58267949192 0 
-0.07 -0.58267949192 0 0.58212565717 -0.051217328366 0 -0.07 0.58267949192 0 
0.58245912871 0.070013739955 0 0.07 -0.58267949192 0 0.58168449499 -0.17128271923 0 
-0.58574378526 0.05125913651 0 0.17050081 0.58443309409 0 -0.58168449499 -0.17128271923 0 
-0.58573295936 0.16883725031 0 -0.19 -0.58267949192 0 0.49 -0.58267949192 0 
-0.49050081 0.58443309409 0 0.58415322569 0.48921568047 0 -0.49 -0.58267949192 0 
0.53 -0.58267949192 0 0.58203286059 0.53119351335 0 -0.53 0.58267949192 0 
-0.58222913959 -0.53018403998 0 0.58202539473 0.28969699417 0 -0.29 0.58267949192 0 
-0.58451963751 -0.45057023735 0 -0.58267949192 -0.07 0 -0.29 -0.58267949192 0 
-0.03 -0.58267949192 0 0.39 -0.58267949192 0 0.58307204747 0.39068583015 0 
-0.39 0.58373814012 0 0.29 -0.58267949192 0 0.58208722445 -0.45065236781 0 
0.45042926572 0.58129593389 0 -0.58211115223 0.44955595746 0 -0.58432719917 -0.36932980655 0 
-0.58406793967 -0.26883049013 0 0.5820526686 -0.36901719046 0 0.37 0.58267949192 0 
-0.5823078615 0.36998422007 0 -0.39 -0.58267949192 0 -0.58211498987 0.271305057 0 
-0.53 -0.58267949192 0 0.58222913959 -0.53018403998 0 0.53 0.58373814012 0 
-0.58219774606 0.53090792334 0 0.58030324732 -0.28813008885 0 0.29050081 0.58443309409 0 
-0.58188605505 -0.56816348762 0 0.56922649731 -0.58312607391 0 0.58067979276 0.57009350437 0 
-0.57009384201 0.58146184644 0 0.54987108288 -0.58275392226 0 0.53997851381 -0.5653713889 0 
0.51999641897 -0.56536105136 0 0.52999582213 -0.54804088787 0 0.50999870685 -0.54803922237 0 
0.51999908816 -0.53071849415 0 0.4999996325 -0.53071817987 0 0.50999978678 -0.51339758273 0 
0.48999990321 -0.5133975155 0 0.49999994833 -0.49607698138 0 0.47999997526 -0.49607696583 0 
0.48999998726 -0.47875645082 0 0.46999999375 -0.47875644708 0 0.47999999684 -0.46143593722 0 
0.45999999843 -0.4614359363 0 0.46999999921 -0.44411542777 0 0.44999999961 -0.44411542755 0 
0.4599999998 -0.42679491936 0 0.4399999999 -0.4267949193 0 0.44999999995 -0.4094744112 0 
0.42999999998 -0.40947441118 0 0.43999999999 -0.3921539031 0 0.41999999999 -0.3921539031 0 
0.43 -0.37483339502 0 0.41 -0.37483339502 0 0.42 -0.35751288694 0 
0.4 -0.35751288694 0 0.41 -0.34019237886 0 0.39 -0.34019237886 0 
0.4 -0.32287187079 0 0.38 -0.32287187079 0 0.39 -0.30555136271 0 
0.37 -0.30555136271 0 0.38 -0.28823085464 0 0.36 -0.28823085464 0 
0.37 -0.27091034656 0 0.35 -0.27091034656 0 0.36 -0.25358983849 0 
0.34 -0.25358983849 0 0.35 -0.23626933041 0 0.33 -0.27091034656 0 
0.32 -0.25358983849 0 0.31 -0.27091034656 0 0.3 -0.25358983849 0 
0.29 -0.27091034656 0 0.28 -0.25358983849 0 0.27 -0.27091034656 0 
0.26 -0.25358983849 0 0.25 -0.27091034656 0 0.27 -0.23626933041 0 
0.24 -0.25358983849 0 0.23 -0.27091034656 0 0.22 -0.25358983849 0 
0.21 -0.27091034656 0 0.2 -0.25358983849 0 0.19 -0.27091034656 0 
0.18 -0.25358983849 0 0.17 -0.27091034656 0 0.19 -0.23626933041 0 
0.16 -0.25358983849 0 0.15 -0.27091034656 0 0.14 -0.25358983849 0 
0.13 -0.27091034656 0 0.12 -0.25358983849 0 0.11 -0.27091034656 0 
0.1 -0.25358983849 0 0.09 -0.27091034656 0 0.08 -0.25358983849 0 
0.07 -0.27091034656 0 0.06 -0.25358983849 0 0.05 -0.27091034656 0 
0.04 -0.25358983849 0 0.03 -0.27091034656 0 0.02 -0.25358983849 0 
0.01 -0.27091034656 0 -1.7474921972e-14 -0.25358983849 0 -0.01 -0.27091034656 0 
-0.02 -0.25358983849 0 -0.03 -0.27091034656 0 -0.04 -0.25358983849 0 
-0.05 -0.27091034656 0 -0.06 -0.25358983849 0 -0.07 -0.27091034656 0 
-0.08 -0.25358983849 0 -0.09 -0.27091034656 0 -0.1 -0.25358983849 0 
-0.11 -0.27091034656 0 -0.12 -0.25358983849 0 -0.13 -0.27091034656 0 
-0.14 -0.25358983849 0 -0.15 -0.27091034656 0 -0.16 -0.25358983849 0 
-0.17 -0.27091034656 0 -0.18 -0.25358983849 0 -0.19 -0.27091034656 0 
-0.2 -0.25358983849 0 -0.21 -0.27091034656 0 -0.22 -0.25358983849 0 
-0.21 -0.23626933041 0 -0.23 -0.23626933041 0 -0.22 -0.21894882233 0 
-0.23 -0.27091034656 0 -0.24 -0.21894882233 0 -0.23 -0.20162831426 0 
-0.25 -0.20162831426 0 -0.24 -0.18430780618 0 -0.26 -0.18430780618 0 
-0.25 -0.16698729811 0 -0.27 -0.16698729811 0 -0.26 -0.14966679003 0 
-0.27 -0.20162831426 0 -0.28 -0.14966679003 0 -0.27 -0.13234628196 0 
-0.29 -0.13234628196 0 -0.28 -0.11502577388 0 -0.3 -0.11502577388 0 
-0.29 -0.097705265805 0 0.22 -0.28823085464 0 0.1 -0.28823085464 0 
-0.1 -0.28823085464 0 -0.22 -0.28823085464 0 -0.24 -0.28823085464 0 
0.02 -0.28823085464 0 -0.31 -0.13234628196 0 -0.31 -0.097705265805 0 
-0.3 -0.080384757729 0 -0.28 -0.080384757729 0 -0.29 -0.063064249654 0 
-0.31 -0.063064249654 0 -0.3 -0.045743741578 0 -0.28 -0.045743741578 0 
-0.29 -0.028423233502 0 -0.27 -0.028423233502 0 -0.28 -0.011102725427 0 
-0.3 -0.011102725427 0 -0.29 0.0062177826491 0 -0.27 0.0062177826491 0 
-0.28 0.023538290725 0 -0.26 0.023538290725 0 -0.27 0.0408587988 0 
-0.25 0.0408587988 0 -0.26 0.058179306876 0 -0.24 0.058179306876 0 
-0.25 0.075499814952 0 -0.23 0.075499814952 0 -0.24 0.092820323028 0 
-0.22 0.092820323028 0 -0.23 0.1101408311 0 -0.21 0.1101408311 0 
-0.22 0.12746133918 0 -0.2 0.12746133918 0 -0.21 0.14478184725 0 
-0.19 0.14478184725 0 -0.2 0.16210235533 0 -0.18 0.16210235533 0 
-0.19 0.17942286341 0 -0.17 0.17942286341 0 -0.21 0.17942286341 0 
-0.2 0.19674337148 0 -0.22 0.19674337148 0 -0.21 0.21406387956 0 
-0.23 0.21406387956 0 -0.22 0.23138438763 0 -0.24 0.23138438763 0 
-0.23 0.24870489571 0 -0.21 0.24870489571 0 -0.25 0.24870489571 0 
-0.27 0.075499814952 0 -0.22 0.26602540378 0 -0.2 0.26602540378 0 
-0.21 0.28334591186 0 -0.19 0.28334591186 0 -0.31 0.0062177826491 0 
-0.23 -0.16698729811 0 0.11 -0.23626933041 0 -0.2 0.30066641994 0 
-0.18 0.30066641994 0 -0.23 -0.30555136271 0 -0.25 -0.30555136271 0 
0.39 -0.37483339502 0 -0.09 -0.23626933041 0 -0.19 0.31798692801 0 
[...]
CELL_DATA 8442
FIELD FieldData 1
flux 1 8442 double
1.098495345e-10 1.9718035955e-05 0.00017306140018 0.029168392115 0.02431713642 7.409504274e-11 0.0024569977872 0.0004030149128 0.047989596663 
0.014851704344 1.0724873072e-05 3.5803180584e-06 0.0029554422081 0.0029988979982 1.5454461201e-13 1.178918556e-05 1.4935198031e-08 0.031755017146 
1.0156835319e-06 0.0013926037301 0.005094340952 1.564492672e-13 1.6558034977e-11 4.1762475091e-10 3.346602179e-05 1.7445019644e-11 2.8092368248e-09 
2.7397001956e-05 4.7933558564e-06 0.020785250044 3.4916904833e-06 1.164214366e-07 0.017696553907 0.017422673096 0.024977918513 0.0061277283789 
0.0061190536633 0.014874116979 0.00084694874268 0.00084441778214 2.8899441176e-05 3.9662576246e-14 4.9282964773e-08 0.05122887895 0.00018495755465 
0.00022283137505 0.00020920663684 7.0452190741e-13 7.1505474816e-13 8.2701945341e-07 7.8867645426e-05 2.0491085877e-06 4.6709918646e-12 4.8296834991e-12 
8.5877786317e-07 0.012232784462 3.2690237826e-07 0.010134991867 0.010900088326 0.010723466468 0.018318564963 5.8008685227e-16 0.036384502647 
0.0090176255094 1.6373437922e-09 9.147839132e-06 5.7753890075e-08 1.8347067742e-14 6.9867621096e-05 0.00097604800256 0.00088748726946 1.8038535123e-09 
7.3235562061e-05 0.0060591193498 2.4915197586e-05 6.9878662778e-11 0.036436426998 0.04748557232 0.0018971966227 0.00193771301 0.01859187673 
0.023851182218 8.2881936067e-11 2.9643541071e-05 1.2225407446e-05 0.00030134331239 0.00059377234538 4.0060920278e-13 4.1478195616e-13 0.0017912720777 
0.0018104263445 3.5306773194e-05 0.04196865719 1.2594907686e-07 1.328318962e-07 0.028437813585 0.01665433699 0.00073165727239 0.00072823877524 
3.3967288433e-06 3.1495202342e-16 2.5046894894e-05 0.00012371398746 8.7373046824e-05 1.0263224003e-08 0.00012716991921 1.2720424313e-06 0.028419944048 
1.8825929629e-12 1.8982000733e-12 6.0057644174e-14 4.5621338769e-07 2.0623990597e-11 2.1756228127e-11 2.4209035246e-10 4.1329796888e-09 0.046348173383 
0.00079634989433 0.0031846733823 0.0032280034478 0.054185941293 1.0643183108e-05 0.049113816191 0.0012839433244 0.0012944024518 0.0059491108145 
0.0024507113003 0.0024579668737 0.03079442829 0.013763014693 5.6126703376e-05 0.00045684815042 8.3410409055e-15 3.0974610348e-06 0.010982826111 
1.5153860243e-06 3.192473686e-10 4.2540959411e-08 4.4362147769e-08 8.3306209387e-06 0.011223972482 41.667084779 41.639326548 0.030646078134 
0.0016523191728 0.0016323265269 6.9262441006e-14 9.8612800437e-06 0.0041550231029 7.9309655052e-05 0.055853808642 3.9276187429e-07 1.0432329477e-06 
5.4718629994e-12 5.8418938023e-12 1.0479712454e-11 1.7362997643e-11 0.023495707364 0.00040369275002 3.5843603462e-07 3.384062565e-07 0.014851263328 
9.1461820008e-12 8.9903649644e-12 6.8669073672e-05 4.5446048284e-08 6.8746986142e-11 1.197327015e-05 0.024464716288 0.036297459966 4.669177681e-10 
0.00015801856558 0.040598611379 41.979670428 41.999937464 3.766861651e-11 41.997072748 41.968827564 0.00076221172062 3.7593784168e-11 
6.1845857275e-07 0.0040370785178 0.0039974109764 4.1375917247e-15 0.030413942375 1.7871116914e-05 2.3871192821e-15 3.4152953657e-06 1.2129759188e-09 
1.5459479122e-10 9.8430429605e-14 1.0000779627e-13 1.1544741967e-06 1.496813176e-10 5.6089488812e-10 6.304158277e-09 2.3748732537e-07 4.2603224324e-06 
9.4559445249e-11 0.00022154259378 7.0757249952e-07 3.3494211468e-06 0.0040124744651 0.000331987702 0.00027450674745 0.0061616868504 0.004105011877 
0.011601976791 0.0082459931003 0.0025944249826 0.0020002001299 0.011898109019 0.0010014078359 0.0037205436435 0.0012191784335 2.8442156757e-05 
0.0098924013848 0.0049974340049 1.4070944731e-09 0.001335607786 8.8238270491e-12 4.2046374891e-09 4.8119945731e-09 4.258267694e-09 3.1758530824e-10 
1.6189044313e-06 0.00084362506799 2.9729097587 3.2047697251 3.0382690854 3.1824617292 2.8023979759 0.14883194791 3.0833893707 
6.371179978e-07 4.0253434003e-05 0.0048451991048 0.032631525188 0.042244209285 3.1911157198 3.185145491 3.0242611467 2.995348733 
2.8744050359 1.8500039136 2.7832162676 0.0016063413322 3.1056296177 3.4025197418e-06 2.8751439906 9.9270346396e-05 2.7876991112 
0.49897582772 1.5893988213e-05 0.35618368767 0.02828432016 1.1965854392 0.046280247891 9.2754217875e-06 2.1052240084e-07 0.69509507507 
1.9962801514e-10 3.0001938149 2.7310272205 3.1697808218 0.23973524581 0.030688982154 2.8995684007 0.07629884099 2.8224652847 
0.91661741689 0.00014319435922 0.33623558283 2.6139468528 0.017805749779 2.8437490792 2.5384314706 1.6056681257e-05 2.4341767572e-12 
1.063311923e-12 2.8271959247 0.00023077512262 0.00033482376273 0.54077995681 2.7809868298 2.5858905287 8.9462252285e-06 1.6614701685 
0.90674801877 0.24469763893 0.81416975283 2.8065700764 2.8122682891 0.00074048299783 2.9476877787 0.2214157194 2.5124188922 
2.8864361313 -1.0729549477 -1.3233617735 1.0410782824e-11 2.7909701222 0.073485757464 -0.094458509972 3.113798125 2.8198834125 
1.0412963069 0.1040714024 0.89929278131 2.2412059382e-05 2.5899450489 0.0095524720231 1.2487157537 0.11382674462 -0.70239944355 
1.1674036972 2.6218477457 2.6680562053 2.8011936114 0.32349704022 0.33944872733 0.11877241877 2.3086989534 3.1745941239 
0.14882020642 2.0037926884 3.2071984177 2.7902214621 -0.26813158941 0.092303656463 -0.36542887085 2.4535744371 0.11157611973 
2.0908195615 1.200416506 0.23941566441 -0.43493298556 1.0595872961 -0.22576326496 -1.3068658792 0.59905294643 -0.27131581852 
0.18663585921 -0.94630142977 2.6084419287 -0.85502462073 -1.2600676598 2.5833961873 3.0567600538 2.7296755512 5.2850313416e-13 
-0.70607787304 1.3869005802 0.083661953617 0.00013056821783 2.5165943552 3.0394101017 -1.0885933678 -0.7980508707 0.16555341288 
1.6682140183 -0.91556564977 1.783328292 0.0001222254979 2.7309366362 0.98540531656 -0.89536198679 1.8718872769 0.035624603231 
1.4380766993 0.2971706074 0.076400670259 1.9180758233 3.1493020096 -0.79909553753 2.066006633 2.9826459767 2.7542149731 
0.14198259167 1.7732208637 0.072007616719 4.6078643957e-06 0.57566918228 0.30219174217 0.13235922267 3.1309027128 0.19645138697 
2.5649792958 1.5524003147 1.5850839023e-05 -0.92124212381 -0.79359231699 2.1622576657 0.24281979802 2.8034931983 8.2835844498e-07 
0.058109940718 2.1960086128 0.15537877387 -0.21643809324 2.8995040028 2.4674725907 2.3090299268 2.5527465016e-06 2.8387061856 
-0.38072403999 6.2148801528e-06 2.7363066561 0.096702503566 0.45409620372 0.93254249946 -0.34702261674 0.43070007714 2.7449011541 
2.7799771845 0.20685050455 0.070489212968 0.11883209032 0.10752425937 2.2314254264 -0.38240716333 -1.220775135 2.380606619 
5.6344046831e-05 1.3181105429 2.0327758073 3.2198108985 -1.2786004544 3.1525157623 0.12149160845 0.054445197961 0.031435391307 
1.8658902504 4.0929125542e-06 2.7837662489 0.097774348043 0.86043201897 2.0605179088 0.13401399791 1.8112797887e-06 0.07749652457 
0.045544453558 -0.60907964382 -0.28558276807 -0.94556811302 1.1098049651 9.9231794843e-08 2.4974394972 0.6498087543 3.0649950871 
0.16095961776 1.069905929e-05 2.2233534823 2.7919927806 1.1256630846e-13 -0.82887746274 3.2266246443 2.6743969112 0.065320114223 
0.30306591126 -0.66507064591 2.6673199716 2.2976283833 -0.84538669927 -1.0771634597 -0.13516670041 0.00064632102911 -0.85057699944 
-0.86459859291 2.7809730697 2.7571376818 0.0028792068811 2.5234239539 0.013452743031 2.5665308875 1.5237599213 -0.53834608588 
-0.81857523679 2.6831063683 0.42997739148 1.8413868988e-05 0.0197635027 2.6128098778 2.5029374943 -0.94994973849 0.011285789591 
-0.16871532598 -1.1644854214 0.29346246394 2.6424605455 -1.0774632917 -0.7814345667 8.0932001721e-07 -0.86639227977 6.8393731043e-06 
-1.3021916201 4.1378996858e-07 0.91133236502 -0.47064818233 -0.63877618385 0.00052767167565 2.0957293494 -1.0593452099 -0.073746213164 
4.7424320916e-12 1.6405510031 -0.70925595671 0.017807380667 -0.88023996229 -0.92106716255 3.2055412573 0.56071798177 1.4862905057 
2.3824616252e-05 -1.0159362276 2.6352501407 3.2172860878 3.1674659259 -0.84016988754 -1.1506046859 4.8690632217e-05 0.066419713476 
0.97236438559 0.085644046594 1.2939058225 2.1150494771 -0.88038622322 -1.2462934719 1.8180593353 3.448339575e-05 2.4273285459 
0.0002921216826 -1.3110485414 0.14794873034 2.5646222497 -1.2376515729 2.1295528302 2.8043001724 2.8863236987 2.8022756226 
2.7870635761 1.6767936215 0.86014721433 -1.2956447892 2.7880873374 0.030809249563 1.3520212491 2.6689695522e-08 2.0604247647 
0.25207663896 1.3762162449 0.76330230487 3.0001059161 -0.25150947345 0.0058118299765 0.0010928308695 0.037145737658 -1.1689367509 
0.26345417798 -0.77294619391 0.076764765784 2.8591621054 -0.7073166625 6.1893947733e-06 -0.44497000584 0.10685365015 3.1094756093 
2.3524639972e-06 2.7834237649 1.2458695645 2.2162031388 -0.46000088919 -0.39051125251 -0.36541660017 1.2147047782e-06 3.0832524936 
0.10172268112 1.752780214 -0.67159720352 1.4522901176e-06 -1.3167852621 0.13776203646 5.073716024e-14 0.071258135697 2.8020500961 
0.0901032382 0.78367040892 -1.2584942475 -0.80387688213 2.9643207849 1.8069194412 0.087530882943 -1.1373249037 0.70744312131 
1.5867418365 -1.3263760134 0.91852788476 -0.7679325632 2.3728233323 -0.73801492568 5.4893754097e-08 0.0057942397345 0.0023980425655 
2.7849391515 -0.34973754224 2.6729467015 8.6651656658e-11 7.5130870892e-07 0.34530663705 0.0074912776038 0.68516155756 1.742075896 
0.15613810255 0.20406627186 -0.94112833992 0.052301381328 0.0042015646494 2.0420304961 2.8739997563 2.8309646513 2.7918190072 
3.0390146808 3.1440040036 3.0241319297 3.1055158367 1.5034487806e-05 3.2952640549e-06 -0.73630253057 1.5883437189 2.6542837965 
2.3953047293 0.95756178994 0.42843870191 3.0858103388 0.0014167516467 -0.67996003858 1.4070716216e-07 -0.96813974994 8.9235873402e-07 
-0.44468502752 -0.51164982035 -0.23408064453 -1.183460941 0.015912813465 0.083510803203 1.8718539061 -0.86888476934 1.2965709502 
2.8788147602 0.027859878415 0.059380240253 1.7452621962 -0.94444252138 0.25224301545 2.802650872 -1.2404130419 4.9220964936e-05 
0.0093679524107 2.4439368732 4.7378883387e-05 -1.0655941451 2.6933822408 0.29359646651 0.82139058505 8.9515169419e-06 3.005192547 
0.017324929037 2.4943261614 3.1523953008 0.0069942751948 1.90118552 3.0695788219 0.050404574139 0.0028163591503 -1.1334990202 
0.0024166525582 2.6567974268 2.0678019565 -0.57658291658 0.1507079872 0.053779521069 6.2004643582e-10 2.2250325942 0.016251717235 
-0.25868733929 -0.20142258307 0.49761834421 0.29712985792 0.017390828307 2.6837682238 6.8385438607e-06 2.4750916175 3.190568597 
0.090207593331 -0.68104454524 2.5529209714e-06 0.44657518804 -1.0571382719 -0.39798395154 1.8911918486 0.17083541022 0.021526590347 
3.2304883487 0.035023556367 -0.53212468283 2.0331126617 1.5425192769 0.12908028722 0.8992079599 2.0915190337 2.9684369182 
3.2066699749 2.4768629618 1.4574858668e-05 2.9943597476 1.5384216302 3.2022421007 -0.47922980812 1.4853275048e-06 0.37365041454 
2.7159784147 -0.6980989238 0.025003613574 2.7873370423 4.154580013e-06 0.15927932116 1.8509690587 -0.97787857642 -0.82899991873 
1.3574185336 2.6796190259 0.00061424969325 0.12925610619 5.0648619995e-13 9.5492552666e-15 1.8947415376 0.043213926684 0.22734291722 
1.5453253246 -1.1557338482 -0.53321934718 0.40653178683 3.1887269738 -0.81160912762 1.4941905161 3.1307297184 -1.0395451085 
0.00057017504876 1.7564289913 -1.2868374209 2.4392447115 2.9645726608 2.6138796292 -0.42051080943 0.00011528190318 3.1965763854 
-1.3035239328 0.0026632504308 -1.2720730447 2.2303648849e-13 -1.0819996266 0.40221340952 6.2647466707e-05 1.1834629421 4.076820724e-06 
1.2516062687 -1.1571348151 0.9434567311 0.26105221995 -0.4175147245 0.67176576038 2.7858194964 0.005791114923 0.30422096801 
-0.85451910145 0.091168540346 0.099842657045 0.00015330055371 1.5260221406 2.0171676492 1.3891661594 0.1018645624 0.011319175496 
2.5963243116 0.18430590637 0.049482739761 0.0011292824813 2.7859647155 -1.118909559 2.3802710695 1.5136616368 1.1930273232 
3.4040449077e-06 -1.198041424 0.087394025951 1.4812882018 2.3410436467 0.80145626449 2.9523135449 -1.3072257457 1.1673723236 
4.2423876031e-05 9.9890831655e-08 -0.18102229898 2.4224728808 1.2065181032 2.8509496811e-07 0.96033179692 1.2391342301 1.7291167775 
-1.3110455619 0.47844800749 2.7422393807e-09 1.2642911357 1.2966621452 0.48573404446 0.0057957886026 1.7452681518 0.1378194586 
0.00051906175444 3.1557216873e-08 1.689283239e-07 -0.0018595324236 2.6353267561e-05 0.0081720721384 0.91994838373 -0.90833867204 -0.036784469899 
0.049501914085 2.4268022005 2.4758505413 3.2168366802 -1.0088452911 4.987725989e-09 -0.092861300152 2.8668157543 7.8736434515e-09 
0.00020928543646 -0.63457259326 2.95265859 0.56731596735 0.76843301735 2.4492532248e-13 -1.1893945457 0.49757385456 0.29694711136 
0.59996402377 0.0013562957246 2.9293468408 2.3096282026 1.8023060229 0.18165014393 0.036156178912 0.00027270358625 0.046008689709 
0.11566324279 0.0031267188383 0.011272572881 2.2947771486 0.00064769770582 1.212845078 6.2421650475e-06 0.0002810969788 0.00024837327357 
1.145539369 2.0811318905 3.1555504031e-08 0.095171845713 0.1996289067 2.9590254646 2.7347565462 -0.99641158365 1.8261224144 
1.6117809079 3.2135718348 0.42874366519 2.1309577773 2.5987574847 2.5851087873 1.0346213307 2.0844587032 0.033925802752 
-1.1109330902 9.2799378861e-06 -0.60987240022 0.60376086564 -1.1433606266 1.7580812872 3.0608590387 2.8628316112 2.2439684755e-06 
9.4125554355e-05 2.6834058403 0.63312990372 0.22760725165 0.0049043141253 0.0001076519868 -0.99219834948 8.9213940529e-07 2.2230563685 
0.0044341766881 0.0091227362884 3.4257976069e-13 -1.1782149717 0.43659537829 4.384089394e-11 0.0015540341004 -1.0895982142 0.052549997207 
1.7329992463 -0.70285729262 2.0684135622 3.0782917962e-07 1.712364792e-10 3.076722789e-07 1.5419198292 2.465322689e-06 2.8750345707 
-0.66877242343 3.0522828758 1.6731091551 1.8932052567 -0.85662112035 -0.63545301079 2.1391579174 0.76512190237 0.49906656695 
1.0462464052 -0.59060133498 1.9727454357 1.5155852785e-06 0.13689791479 -1.2115482801 4.9037809969e-08 3.1947247624 0.052678921584 
2.6683810144e-08 0.066747089899 0.00014122056735 5.5401892523e-06 1.8693482692 0.92542402675 2.4398578319 1.6111629302 0.11818370068 
0.0020911229174 0.018227438188 0.004823242284 0.0028364842427 0.06859871014 0.53600215342 0.072144635572 0.011341545407 -1.0151732861 
2.782980038 0.21871838691 0.0027542190251 0.10501196775 7.4975316939e-05 0.92062856794 5.3514853712e-07 3.08561103 0.095256752525 
0.60980802822 -1.2723430323 0.24682868184 1.438080427 0.6092094963 0.018566208379 -0.93113246987 0.00050196984429 0.034445343568 
2.0877237859 1.9852989427e-05 -0.96915519004 2.4598069625 -0.30080602027 2.0854858714 -0.99985496757 -1.2808919279 0.28397159054 
-0.26309492614 -0.073007124043 -1.2108613882 -1.2163406762 0.2904989201 0.029911664834 -0.82848005289 0.4094571878 0.035192299185 
1.3576460875 3.1674710424e-08 1.859229135 3.144222372 0.1172139055 0.066811882091 0.34235381037 1.2532332313 5.5954652187e-07 
0.0050258420987 -0.4908124933 2.9598812249 2.805543009 0.00045793926863 0.10847346117 2.6983163706 0.0062812286795 -0.30059865422 
7.8723770132e-09 1.7490707684 0.65661289139 -1.203562341 0.28225434119 9.9219501935e-08 1.5651691046 2.4973632493 1.9820560391 
0.35626562356 0.041868262213 1.1681632068 0.028961384913 -0.44314048341 2.308543578 -1.0309722369 0.2008459719 0.5762624129 
0.14631356232 1.4129109241 -0.37771745669 0.72265782523 1.2270068279e-06 -0.83531441506 -1.2398680399 2.1394019818 0.2586344022 
0.19920339676 1.4205735636 3.061995728 2.7279059741 -1.0729852606 2.2875576786e-09 -1.3117459626 1.8583388728 0.045069702848 
0.10491894834 0.50083679154 2.3113290013 -1.1855166406 0.13004430755 0.14461501664 0.0026416302572 3.0381296542 1.749099951e-07 
0.00012156572602 0.66121198163 2.2281104953e-06 0.059275243509 1.3223236398 0.078363828222 6.1857373415e-06 0.00049744610061 0.0012435383868 
0.00022685013386 7.3085204044e-08 1.3154607386 0.81676806372 0.17486974453 1.8836675756 3.0208163694 3.2024998173 2.7585241193 
3.2029942452 1.9297080271 0.0018227460714 1.6256362536 -1.2323731216 2.6420515103e-07 0.010029475549 -0.58625953933 2.6348825714 
-1.2429953433 4.1910770061e-13 5.732105782e-13 0.0078864328085 1.977050908 -0.74818849425 1.5419766788 -0.47940137711 2.3975970794 
0.1742231871 2.7553286965 -1.2580146085 1.6114595489 -0.36342061809 0.89274195701 -1.1519086037 -0.69753556602 1.0589861391 
-1.0708553398 0.7217585032 -0.67177706106 0.18669169111 1.5923656078 -1.1945202348 0.37487102583 3.1665815571 0.0028560241849 
-1.32457134 2.8121689105 0.12196534804 -1.1436506602 1.2507146937 0.04185211584 1.2740498917 -0.48983021825 0.11658978594 
2.6761216301 0.17982198227 0.0021419464505 2.423518425 5.8776084281e-15 0.41394770726 1.7015699482 0.40217966579 0.029411151603 
0.23775583168 0.43236429075 -1.0794024526 0.72555673839 1.0438395942 2.6512970763 0.015050319224 0.038469792682 0.067267147365 
1.8684085428e-05 0.070450811115 0.055858646157 0.00011524604747 -0.85241071813 1.8499341922 4.7978643376e-05 -1.0985878754 2.0176941868 
1.5611487701 -0.47120267409 3.1343935892 1.191439089 6.2355714252e-08 6.6175205365e-08 0.037668143179 9.1022696496e-08 2.7906365771 
1.4144256675 0.0026462078226 0.19332111683 2.9339940448 0.19836079397 0.078309808792 -0.96873594648 -0.75911350407 8.9027840755e-05 
-0.79880260245 -0.7634825413 0.0039416300824 -0.84825332363 -0.5132050954 8.8869034695e-08 -0.21576698388 0.0020935710171 -0.26854978048 
1.8920820166 2.3699983261 9.8253166101e-05 -0.77557130897 0.10417081402 0.48928152901 0.43216002885 2.6998865148e-12 2.8052006567 
1.5979230706 0.18410010393 0.88842053463 0.00022161291766 -1.1791542092 1.3874774155 -1.2039796755 2.5100036297 -1.1266985409 
0.63650433178 0.34582230655 0.8701167504 1.0278627535 2.2861766195 1.9648648068 0.96040025709 -0.93113122772 2.8051451041 
3.0255805103 3.0451168532 2.6753816979 0.031013071346 -0.65907322919 0.00028326797563 -0.91898476316 0.1695452748 0.0035456504429 
0.0025517100593 -0.55560533997 -1.1731289619 2.1321823897 2.5672015506 0.18912242157 2.7088871257e-07 2.6936266197 6.695018468e-09 
3.1446263889 1.8925132839 0.38822530598 2.7811248774 2.3748290137 -0.86433418477 1.4879463283 -0.67404456446 0.63713184063 
0.033840696443 0.013232234303 0.004148221792 1.0885230282 1.8891227224 3.1373519993 1.2487040487 0.059322354788 0.019570212025 
4.2375522813e-05 0.26297537821 2.6927592531 1.2938415869 2.0205857266 1.1675127729 2.4683814677e-08 2.0345584149e-05 0.0059849089689 
3.0043096999 0.9911292287 1.3249816658 2.2830581202e-12 -0.74948164062 2.3095313978 0.040013702024 0.0002888087631 2.0842808324 
1.6061938933 0.00079182351872 2.9789752731 0.28981805376 -0.48900787054 -1.2059884123 8.837092308e-05 6.807926703e-05 4.11244789e-11 
0.044514930592 2.7879443712 2.7160260211 2.9599918967 0.0092534128372 -1.0914264257 -0.71635164358 0.024237775372 0.0062257977079 
0.077352215019 0.04022183332 0.078571110853 -1.1053345941 -0.98675315136 6.0905253147e-05 2.9756915181 0.00098835868176 -0.70881282064 
0.043740836187 2.6313152815 0.020115356202 -1.234505422 3.1933379432 2.2697980695e-05 2.4684559089 2.6736120739 0.052352818564 
2.1672272918 2.0269671798 0.0062361333304 0.40314613996 0.82337871804 0.039572343291 2.3227337242 0.20261278628 0.0070698607549 
-0.19028206232 0.92013776593 -0.67497099483 2.990185501 1.5549562129 2.6931125446 0.011740175393 -0.84171058655 0.0056735385389 
1.9423035599e-07 3.2133806261 0.31710634882 1.642140971e-06 9.8339588441e-08 9.3798002334e-08 7.0116386048e-08 0.00099076461025 0.096070135016 
-1.2131227895 4.3381673197e-08 0.24098059726 0.0028989035111 0.14603903667 -0.28640037422 6.0110903275e-05 5.0190462469e-12 6.4523139458e-05 
1.980419769 -1.0337000676 0.00084735579859 -0.89095269393 1.711115862 2.8502330841 0.01103719598 -1.0381399507 -1.0820167609 
2.525409653e-05 0.00015237837526 2.240928936e-05 2.3036797338 1.0699646639 2.0718128944 0.022899790668 0.82319760649 0.10303326402 
0.00013041582347 0.0027423460122 0.00043115012345 0.0028589665815 3.0033444335 -0.81414972951 -0.12218928954 0.10891991072 2.4649442528e-11 