# vtk DataFile Version 4.2
vtk output
ASCII
DATASET UNSTRUCTURED_GRID
POINTS 4342 double
-0.6 -0.6 0 0.6 -0.6 0 0.6 0.6 0 
-0.6 0.6 0 0 0 0 -0.58 -0.6 0 
-0.56 -0.6 0 -0.54 -0.6 0 -0.52 -0.6 0 
-0.5 -0.6 0 -0.48 -0.6 0 -0.46 -0.6 0 
-0.44 -0.6 0 -0.42 -0.6 0 -0.4 -0.6 0 
-0.38 -0.6 0 -0.36 -0.6 0 -0.34 -0.6 0 
-0.32 -0.6 0 -0.3 -0.6 0 -0.28 -0.6 0 
-0.26 -0.6 0 -0.24 -0.6 0 -0.22 -0.6 0 
-0.2 -0.6 0 -0.18 -0.6 0 -0.16 -0.6 0 
-0.14 -0.6 0 -0.12 -0.6 0 -0.1 -0.6 0 
-0.08 -0.6 0 -0.06 -0.6 0 -0.04 -0.6 0 
-0.02 -0.6 0 -8.881784197e-16 -0.6 0 0.02 -0.6 0 
0.04 -0.6 0 0.06 -0.6 0 0.08 -0.6 0 
0.1 -0.6 0 0.12 -0.6 0 0.14 -0.6 0 
0.16 -0.6 0 0.18 -0.6 0 0.2 -0.6 0 
0.22 -0.6 0 0.24 -0.6 0 0.26 -0.6 0 
0.28 -0.6 0 0.3 -0.6 0 0.32 -0.6 0 
0.34 -0.6 0 0.36 -0.6 0 0.38 -0.6 0 
0.4 -0.6 0 0.42 -0.6 0 0.44 -0.6 0 
0.46 -0.6 0 0.48 -0.6 0 0.5 -0.6 0 
0.52 -0.6 0 0.54 -0.6 0 0.56 -0.6 0 
0.58 -0.6 0 0.6 -0.58 0 0.6 -0.56 0 
0.6 -0.54 0 0.6 -0.52 0 0.6 -0.5 0 
0.6 -0.48 0 0.6 -0.46 0 0.6 -0.44 0 
0.6 -0.42 0 0.6 -0.4 0 0.6 -0.38 0 
0.6 -0.36 0 0.6 -0.34 0 0.6 -0.32 0 
0.6 -0.3 0 0.6 -0.28 0 0.6 -0.26 0 
0.6 -0.24 0 0.6 -0.22 0 0.6 -0.2 0 
0.6 -0.18 0 0.6 -0.16 0 0.6 -0.14 0 
0.6 -0.12 0 0.6 -0.1 0 0.6 -0.08 0 
0.6 -0.06 0 0.6 -0.04 0 0.6 -0.02 0 
0.6 -8.881784197e-16 0 0.6 0.02 0 0.6 0.04 0 
0.6 0.06 0 0.6 0.08 0 0.6 0.1 0 
0.6 0.12 0 0.6 0.14 0 0.6 0.16 0 
0.6 0.18 0 0.6 0.2 0 0.6 0.22 0 
0.6 0.24 0 0.6 0.26 0 0.6 0.28 0 
0.6 0.3 0 0.6 0.32 0 0.6 0.34 0 
0.6 0.36 0 0.6 0.38 0 0.6 0.4 0 
0.6 0.42 0 0.6 0.44 0 0.6 0.46 0 
0.6 0.48 0 0.6 0.5 0 0.6 0.52 0 
0.6 0.54 0 0.6 0.56 0 0.6 0.58 0 
0.58 0.6 0 0.56 0.6 0 0.54 0.6 0 
0.52 0.6 0 0.5 0.6 0 0.48 0.6 0 
0.46 0.6 0 0.44 0.6 0 0.42 0.6 0 
0.4 0.6 0 0.38 0.6 0 0.36 0.6 0 
0.34 0.6 0 0.32 0.6 0 0.3 0.6 0 
0.28 0.6 0 0.26 0.6 0 0.24 0.6 0 
0.22 0.6 0 0.2 0.6 0 0.18 0.6 0 
0.16 0.6 0 0.14 0.6 0 0.12 0.6 0 
0.1 0.6 0 0.08 0.6 0 0.06 0.6 0 
0.04 0.6 0 0.02 0.6 0 8.881784197e-16 0.6 0 
-0.02 0.6 0 -0.04 0.6 0 -0.06 0.6 0 
-0.08 0.6 0 -0.1 0.6 0 -0.12 0.6 0 
-0.14 0.6 0 -0.16 0.6 0 -0.18 0.6 0 
-0.2 0.6 0 -0.22 0.6 0 -0.24 0.6 0 
-0.26 0.6 0 -0.28 0.6 0 -0.3 0.6 0 
-0.32 0.6 0 -0.34 0.6 0 -0.36 0.6 0 
-0.38 0.6 0 -0.4 0.6 0 -0.42 0.6 0 
-0.44 0.6 0 -0.46 0.6 0 -0.48 0.6 0 
-0.5 0.6 0 -0.52 0.6 0 -0.54 0.6 0 
-0.56 0.6 0 -0.58 0.6 0 -0.6 0.58 0 
-0.6 0.56 0 -0.6 0.54 0 -0.6 0.52 0 
-0.6 0.5 0 -0.6 0.48 0 -0.6 0.46 0 
-0.6 0.44 0 -0.6 0.42 0 -0.6 0.4 0 
-0.6 0.38 0 -0.6 0.36 0 -0.6 0.34 0 
-0.6 0.32 0 -0.6 0.3 0 -0.6 0.28 0 
-0.6 0.26 0 -0.6 0.24 0 -0.6 0.22 0 
-0.6 0.2 0 -0.6 0.18 0 -0.6 0.16 0 
-0.6 0.14 0 -0.6 0.12 0 -0.6 0.1 0 
-0.6 0.08 0 -0.6 0.06 0 -0.6 0.04 0 
-0.6 0.02 0 -0.6 8.881784197e-16 0 -0.6 -0.02 0 
-0.6 -0.04 0 -0.6 -0.06 0 -0.6 -0.08 0 
-0.6 -0.1 0 -0.6 -0.12 0 -0.6 -0.14 0 
-0.6 -0.16 0 -0.6 -0.18 0 -0.6 -0.2 0 
-0.6 -0.22 0 -0.6 -0.24 0 -0.6 -0.26 0 
-0.6 -0.28 0 -0.6 -0.3 0 -0.6 -0.32 0 
-0.6 -0.34 0 -0.6 -0.36 0 -0.6 -0.38 0 
-0.6 -0.4 0 -0.6 -0.42 0 -0.6 -0.44 0 
-0.6 -0.46 0 -0.6 -0.48 0 -0.6 -0.5 0 
-0.6 -0.52 0 -0.6 -0.54 0 -0.6 -0.56 0 
-0.6 -0.58 0 0.25 -0.58267949192 0 -0.25 -0.58267949192 0 
-0.24969338163 0.58271630631 0 0.58313820224 0.25089999788 0 -0.58073798855 0.23055415423 0 
0.23 0.58267949192 0 0.5822727489 -0.23023532651 0 -0.58232885758 -0.22986293355 0 
-0.13 -0.58267949192 0 0.58091085312 0.12866705289 0 -0.13050081 0.58443309409 0 
0.13 -0.58267949192 0 0.11 0.58267949192 0 0.58128887437 -0.11185352307 0 
-0.58641004823 0.11046978504 0 -0.58097603768 -0.11235367818 0 -0.01 0.5841811861 0 
0.01 -0.58267949192 0 0.58217507245 0.011050809949 0 -0.58206506685 -0.010494327869 0 
0.58255589861 -0.33012459525 0 -0.58098267687 0.33246863147 0 0.33 0.58267949192 0 
-0.58090018381 -0.32734039494 0 0.35 -0.58267949192 0 0.58210978525 0.34851718814 0 
-0.34984356206 0.58269328777 0 -0.35 -0.58267949192 0 -0.58404031657 -0.41125547479 0 
0.58404031657 -0.41125547479 0 0.41 0.58267949192 0 -0.58127371569 0.40748932397 0 
0.43 -0.58267949192 0 0.58287041801 0.42966930632 0 -0.43030661837 0.58271630631 0 
-0.43 -0.58267949192 0 0.49 0.58267949192 0 0.58119455181 -0.49272606834 0 
-0.58196591894 0.48785347999 0 -0.58132747275 -0.49216380446 0 0.58099079541 0.19297246443 0 
-0.18926154554 0.58413656679 0 0.05 0.58267949192 0 0.19 -0.58267949192 0 
-0.07 -0.58267949192 0 0.58212565717 -0.051217328366 0 -0.07 0.58267949192 0 
0.58245912871 0.070013739955 0 0.07 -0.58267949192 0 0.58168449499 -0.17128271923 0 
-0.58574378526 0.05125913651 0 0.17050081 0.58443309409 0 -0.58168449499 -0.17128271923 0 
-0.58573295936 0.16883725031 0 -0.19 -0.58267949192 0 0.49 -0.58267949192 0 
-0.49050081 0.58443309409 0 0.58415322569 0.48921568047 0 -0.49 -0.58267949192 0 
0.53 -0.58267949192 0 0.58203286059 0.53119351335 0 -0.53 0.58267949192 0 
-0.58222913959 -0.53018403998 0 0.58202539473 0.28969699417 0 -0.29 0.58267949192 0 
-0.58451963751 -0.45057023735 0 -0.58267949192 -0.07 0 -0.29 -0.58267949192 0 
-0.03 -0.58267949192 0 0.39 -0.58267949192 0 0.58307204747 0.39068583015 0 
-0.39 0.58373814012 0 0.29 -0.58267949192 0 0.58208722445 -0.45065236781 0 
0.45042926572 0.58129593389 0 -0.58211115223 0.44955595746 0 -0.58432719917 -0.36932980655 0 
-0.58406793967 -0.26883049013 0 0.5820526686 -0.36901719046 0 0.37 0.58267949192 0 
-0.5823078615 0.36998422007 0 -0.39 -0.58267949192 0 -0.58211498987 0.271305057 0 
-0.53 -0.58267949192 0 0.58222913959 -0.53018403998 0 0.53 0.58373814012 0 
-0.58219774606 0.53090792334 0 0.58030324732 -0.28813008885 0 0.29050081 0.58443309409 0 
-0.58188605505 -0.56816348762 0 0.56922649731 -0.58312607391 0 0.58067979276 0.57009350437 0 
-0.57009384201 0.58146184644 0 0.54987108288 -0.58275392226 0 0.53997851381 -0.5653713889 0 
0.51999641897 -0.56536105136 0 0.52999582213 -0.54804088787 0 0.50999870685 -0.54803922237 0 
0.51999908816 -0.53071849415 0 0.4999996325 -0.53071817987 0 0.50999978678 -0.51339758273 0 
0.48999990321 -0.5133975155 0 0.49999994833 -0.49607698138 0 0.47999997526 -0.49607696583 0 
0.48999998726 -0.47875645082 0 0.46999999375 -0.47875644708 0 0.47999999684 -0.46143593722 0 
0.45999999843 -0.4614359363 0 0.46999999921 -0.44411542777 0 0.44999999961 -0.44411542755 0 
0.4599999998 -0.42679491936 0 0.4399999999 -0.4267949193 0 0.44999999995 -0.4094744112 0 
0.42999999998 -0.40947441118 0 0.43999999999 -0.3921539031 0 0.41999999999 -0.3921539031 0 
0.43 -0.37483339502 0 0.41 -0.37483339502 0 0.42 -0.35751288694 0 
0.4 -0.35751288694 0 0.41 -0.34019237886 0 0.39 -0.34019237886 0 
0.4 -0.32287187079 0 0.38 -0.32287187079 0 0.39 -0.30555136271 0 
0.37 -0.30555136271 0 0.38 -0.28823085464 0 0.36 -0.28823085464 0 
0.37 -0.27091034656 0 0.35 -0.27091034656 0 0.36 -0.25358983849 0 
0.34 -0.25358983849 0 0.35 -0.23626933041 0 0.33 -0.27091034656 0 
0.32 -0.25358983849 0 0.31 -0.27091034656 0 0.3 -0.25358983849 0 
0.29 -0.27091034656 0 0.28 -0.25358983849 0 0.27 -0.27091034656 0 
0.26 -0.25358983849 0 0.25 -0.27091034656 0 0.27 -0.23626933041 0 
0.24 -0.25358983849 0 0.23 -0.27091034656 0 0.22 -0.25358983849 0 
0.21 -0.27091034656 0 0.2 -0.25358983849 0 0.19 -0.27091034656 0 
0.18 -0.25358983849 0 0.17 -0.27091034656 0 0.19 -0.23626933041 0 
0.16 -0.25358983849 0 0.15 -0.27091034656 0 0.14 -0.25358983849 0 
0.13 -0.27091034656 0 0.12 -0.25358983849 0 0.11 -0.27091034656 0 
0.1 -0.25358983849 0 0.09 -0.27091034656 0 0.08 -0.25358983849 0 
0.07 -0.27091034656 0 0.06 -0.25358983849 0 0.05 -0.27091034656 0 
0.04 -0.25358983849 0 0.03 -0.27091034656 0 0.02 -0.25358983849 0 
0.01 -0.27091034656 0 -1.7474921972e-14 -0.25358983849 0 -0.01 -0.27091034656 0 
-0.02 -0.25358983849 0 -0.03 -0.27091034656 0 -0.04 -0.25358983849 0 
-0.05 -0.27091034656 0 -0.06 -0.25358983849 0 -0.07 -0.27091034656 0 
-0.08 -0.25358983849 0 -0.09 -0.27091034656 0 -0.1 -0.25358983849 0 
-0.11 -0.27091034656 0 -0.12 -0.25358983849 0 -0.13 -0.27091034656 0 
-0.14 -0.25358983849 0 -0.15 -0.27091034656 0 -0.16 -0.25358983849 0 
-0.17 -0.27091034656 0 -0.18 -0.25358983849 0 -0.19 -0.27091034656 0 
-0.2 -0.25358983849 0 -0.21 -0.27091034656 0 -0.22 -0.25358983849 0 
-0.21 -0.23626933041 0 -0.23 -0.23626933041 0 -0.22 -0.21894882233 0 
-0.23 -0.27091034656 0 -0.24 -0.21894882233 0 -0.23 -0.20162831426 0 
-0.25 -0.20162831426 0 -0.24 -0.18430780618 0 -0.26 -0.18430780618 0 
-0.25 -0.16698729811 0 -0.27 -0.16698729811 0 -0.26 -0.14966679003 0 
-0.27 -0.20162831426 0 -0.28 -0.14966679003 0 -0.27 -0.13234628196 0 
-0.29 -0.13234628196 0 -0.28 -0.11502577388 0 -0.3 -0.11502577388 0 
-0.29 -0.097705265805 0 0.22 -0.28823085464 0 0.1 -0.28823085464 0 
-0.1 -0.28823085464 0 -0.22 -0.28823085464 0 -0.24 -0.28823085464 0 
0.02 -0.28823085464 0 -0.31 -0.13234628196 0 -0.31 -0.097705265805 0 
-0.3 -0.080384757729 0 -0.28 -0.080384757729 0 -0.29 -0.063064249654 0 
-0.31 -0.063064249654 0 -0.3 -0.045743741578 0 -0.28 -0.045743741578 0 
-0.29 -0.028423233502 0 -0.27 -0.028423233502 0 -0.28 -0.011102725427 0 
-0.3 -0.011102725427 0 -0.29 0.0062177826491 0 -0.27 0.0062177826491 0 
-0.28 0.023538290725 0 -0.26 0.023538290725 0 -0.27 0.0408587988 0 
-0.25 0.0408587988 0 -0.26 0.058179306876 0 -0.24 0.058179306876 0 
-0.25 0.075499814952 0 -0.23 0.075499814952 0 -0.24 0.092820323028 0 
-0.22 0.092820323028 0 -0.23 0.1101408311 0 -0.21 0.1101408311 0 
-0.22 0.12746133918 0 -0.2 0.12746133918 0 -0.21 0.14478184725 0 
-0.19 0.14478184725 0 -0.2 0.16210235533 0 -0.18 0.16210235533 0 
-0.19 0.17942286341 0 -0.17 0.17942286341 0 -0.21 0.17942286341 0 
-0.2 0.19674337148 0 -0.22 0.19674337148 0 -0.21 0.21406387956 0 
-0.23 0.21406387956 0 -0.22 0.23138438763 0 -0.24 0.23138438763 0 
-0.23 0.24870489571 0 -0.21 0.24870489571 0 -0.25 0.24870489571 0 
-0.27 0.075499814952 0 -0.22 0.26602540378 0 -0.2 0.26602540378 0 
-0.21 0.28334591186 0 -0.19 0.28334591186 0 -0.31 0.0062177826491 0 
-0.23 -0.16698729811 0 0.11 -0.23626933041 0 -0.2 0.30066641994 0 
-0.18 0.30066641994 0 -0.23 -0.30555136271 0 -0.25 -0.30555136271 0 
0.39 -0.37483339502 0 -0.09 -0.23626933041 0 -0.19 0.31798692801 0 
[...]
CELL_DATA 8442
FIELD FieldData 1
flux 1 8442 double
0.006509530947 0.006509530947 0.006509530947 0.006509530947 0.006509530947 0.006509530947 0.006509530947 0.006509530947 0.006509530947 
0.006509530947 0.006509530947 0.006509530947 0.006509530947 0.006509530947 0.006509530947 0.006509530947 0.006509530947 0.006509530947 
0.006509530947 0.006509530947 0.006509530947 0.006509530947 0.006509530947 0.006509530947 0.006509530947 0.006509530947 0.006509530947 
0.006509530947 0.006509530947 0.006509530947 0.006509530947 0.006509530947 0.006509530947 0.006509530947 0.006509530947 0.006509530947 
0.006509530947 0.006509530947 0.006509530947 0.006509530947 0.006509530947 0.006509530947 0.006509530947 0.006509530947 0.006509530947 
0.006509530947 0.006509530947 0.006509530947 0.006509530947 0.006509530947 0.006509530947 0.006509530947 0.006509530947 0.006509530947 
0.006509530947 0.006509530947 0.006509530947 0.006509530947 0.006509530947 0.006509530947 0.006509530947 6.8169696241e-228 0.006509530947 
1.1246726616e-118 0.006509530947 0.006509530947 0.006509530947 0.006509530947 3.3965297423e-139 0.006509530947 0.006509530947 0.006509530947 
0.006509530947 1.1838698986e-120 0.006509530947 0.006509530947 0.006509530947 0.006509530947 0.006509530947 0.006509530947 0.006509530947 
0.006509530947 0.006509530947 0.006509530947 0.006509530947 0.006509530947 0.006509530947 0.006509530947 0.006509530947 2.1222505548e-125 
2.1222505548e-125 0.006509530947 0.006509530947 0.006509530947 0.006509530947 0.006509530947 0.006509530947 0.006509530947 0.006509530947 
0.006509530947 0.006509530947 0.006509530947 0.006509530947 0.006509530947 0.006509530947 0.006509530947 0.006509530947 0.006509530947 
0.006509530947 0.006509530947 0.006509530947 0.006509530947 0.006509530947 0.006509530947 0.006509530947 0.006509530947 0.006509530947 
0.006509530947 0.006509530947 0.006509530947 0.006509530947 0.006509530947 0.006509530947 0.006509530947 0.006509530947 0.006509530947 
0.006509530947 0.006509530947 0.006509530947 0.006509530947 0.006509530947 0.006509530947 0.006509530947 0.006509530947 0.006509530947 
0.006509530947 0.006509530947 0.006509530947 0.006509530947 0.006509530947 0.006509530947 3.6283401018 3.6271240344 0.006509530947 
0.006509530947 0.006509530947 0.006509530947 0.006509530947 0.006509530947 0.006509530947 0.006509530947 0.006509530947 0.006509530947 
0.006509530947 0.006509530947 0.006509530947 0.006509530947 0.006509530947 0.006509530947 0.006509530947 0.006509530947 0.006509530947 
0.006509530947 0.006509530947 0.006509530947 0.006509530947 0.006509530947 0.006509530947 0.006509530947 0.006509530947 0.006509530947 
0.006509530947 0.006509530947 3.6248532968 3.6249201058 0.006509530947 3.6239978492 3.623542211 0.006509530947 0.006509530947 
0.006509530947 0.006509530947 0.006509530947 0.006509530947 0.006509530947 0.006509530947 0.006509530947 0.006509530947 0.006509530947 
0.006509530947 0.006509530947 0.006509530947 0.006509530947 0.006509530947 0.006509530947 0.006509530947 0.006509530947 0.006509530947 
0.006509530947 0.006509530947 0.006509530947 0.006509530947 0.006509530947 0.006509530947 0.006509530947 0.006509530947 0.006509530947 
0.006509530947 0.006509530947 0.006509530947 0.006509530947 0.006509530947 0.006509530947 0.006509530947 0.006509530947 0.006509530947 
0.006509530947 0.006509530947 0.006509530947 0.006509530947 0.006509530947 0.006509530947 0.006509530947 0.006509530947 0.006509530947 
0.006509530947 0.006509530947 0.052750388904 0.01292413643 0.02659152534 0.03069555078 0.038350136467 0.006509530947 0.020044301329 
0.006509530947 0.006509530947 0.006509530947 0.006509530947 0.006509530947 0.006509530947 0.019500251192 0.015421017713 0.04622884494 
0.006509530947 0.11740843411 0.016270649822 0.006509530947 0.006509530947 0.006509530947 0.018098944607 0.006509530947 0.006509530947 
0.006509530947 0.006509530947 0.006509530947 0.006509530947 0.006509530947 0.006509530947 0.006509530947 0.006509530947 0.006509530947 
0.006509530947 0.012503788367 0.01816017174 0.029500245081 0.006509530947 0.006509530947 0.016508570533 0.006509530947 0.01612562772 
0.006509530947 0.006509530947 0.006509530947 0.018494077511 0.006509530947 0.006509530947 0.021747979693 0.006509530947 0.006509530947 
0.006509530947 0.006509530947 0.006509530947 0.006509530947 0.006509530947 0.017025695419 0.006509530947 0.006509530947 0.006509530947 
0.006509530947 0.006509530947 0.006509530947 0.006509530947 0.006509530947 0.006509530947 0.006509530947 0.006509530947 0.019919948363 
0.033688803041 3.023375989 4.0802313914 0.006509530947 0.011123646712 0.006509530947 0.7093951362 0.006509530947 0.006509530947 
0.006509530947 0.006509530947 0.006509530947 0.006509530947 0.046707779997 0.006509530947 0.006509530947 0.006509530947 2.9759590271 
0.006509530947 0.006509530947 0.006509530947 0.006509530947 0.006509530947 0.006509530947 0.006509530947 0.06041557179 0.006509530947 
0.006509530947 0.006509530947 0.006509530947 0.025623275985 2.5623047342 0.006509530947 2.7074325217 0.030748211113 0.006509530947 
0.006509530947 0.006509530947 0.006509530947 2.7818889133 0.006509530947 2.5280350388 3.1441477128 0.006509530947 2.2635872691 
0.006509530947 3.4913373189 0.029402390544 3.1256403713 4.3259719555 0.015902838514 0.013491642234 0.011450165958 0.006509530947 
2.9033420148 0.006509530947 0.006509530947 0.006509530947 0.006509530947 0.006509530947 2.5308764119 3.0183959654 0.006509530947 
0.006509530947 3.3617560227 0.006509530947 0.006509530947 0.018160018314 0.19051907934 2.1651759267 0.070201010666 0.006509530947 
0.13045002552 0.006509530947 0.006509530947 0.12369914431 0.013308477535 1.5980455795 0.06790850613 0.061378165337 0.006509530947 
0.006509530947 0.20659447509 0.006509530947 0.006509530947 0.35352862594 0.006509530947 0.006509530947 0.006509530947 0.006509530947 
0.006509530947 0.006509530947 0.006509530947 2.0743755752 1.5395948884 0.006509530947 0.006509530947 0.006509530947 0.006509530947 
0.006509530947 0.006509530947 0.006509530947 0.81754919025 0.016508351374 0.06839041655 0.10598956834 0.006509530947 0.006509530947 
1.1672858126 0.006509530947 0.006509530947 0.006509530947 0.006509530947 0.006509530947 2.9324386267 0.006509530947 0.006509530947 
0.006509530947 2.7858722051 0.58245397173 0.006509530947 0.006509530947 0.038680250478 2.6452653582 2.5878492725 0.006509530947 
0.006509530947 0.006509530947 0.006509530947 0.006509530947 4.1339568216 0.010709977533 0.006509530947 0.006509530947 0.006509530947 
0.006509530947 0.006509530947 0.006509530947 0.006509530947 0.78023303194 0.006509530947 0.006509530947 0.006509530947 0.006509530947 
0.006509530947 2.47770034 2.3428320237 3.1063579926 0.006509530947 0.006509530947 0.006509530947 0.006509530947 0.006509530947 
0.006509530947 0.006509530947 0.026430384925 0.006509530947 0.006509530947 2.2264613809 0.006509530947 0.015241602271 0.006509530947 
0.006509530947 2.2358298197 0.019661468853 0.006509530947 2.6553031143 3.0782849546 0.81038642532 0.006509530947 2.3371398258 
2.3550856958 0.017025563205 0.006509530947 0.006509530947 0.055868252756 0.006509530947 0.006509530947 0.1070379564 2.7488776333 
2.1954429444 0.011569239616 2.5210132131 0.006509530947 0.006509530947 0.006509530947 0.032710328454 2.9649249922 0.006509530947 
2.6534317609 4.148945163 0.006509530947 0.006509530947 3.5384507046 2.0791389448 0.006509530947 2.3363489532 0.006509530947 
3.6171766014 0.006509530947 0.74298749983 1.3600725511 3.2611124447 0.006509530947 0.049886503023 3.8712768615 0.94191121604 
0.006509530947 0.006509530947 2.7397272255 0.006509530947 2.7210595811 2.7500933487 0.006509530947 0.006509530947 0.006509530947 
0.006509530947 3.2201986023 0.11608521861 0.006509530947 0.006509530947 1.444018366 2.6733101839 0.006509530947 0.006509530947 
0.006509530947 0.57900767255 0.006509530947 0.006509530947 2.3996146822 2.6228971888 0.006509530947 0.006509530947 0.052962269089 
0.006509530947 3.3519030092 0.006509530947 0.006509530947 3.6433998708 0.006509530947 0.006509530947 0.032960106248 0.03953355954 
0.012228230633 0.006509530947 0.78023141657 4.1756467736 0.006509530947 0.006509530947 0.2650551576 0.006509530947 0.006509530947 
0.006509530947 0.006509530947 0.006509530947 0.012503623604 0.65164405488 0.006509530947 0.006509530947 0.006509530947 4.1606975358 
1.2083943833 1.9914173613 0.006509530947 0.006509530947 1.9084544516 0.006509530947 2.8096518444 0.006509530947 0.0092127583993 
0.006509530947 0.006509530947 0.006509530947 0.17350926732 1.0598677998 2.5414962885 2.7073914889 0.006509530947 0.020804424583 
0.006509530947 0.16789134758 2.9253741148 0.006509530947 4.2818957884 0.006509530947 0.006509530947 0.58311097327 0.006509530947 
0.006509530947 0.23857815826 4.2887346881 2.2176955611 0.020129665095 0.12360417895 0.006509530947 4.0405069047 0.41838543167 
0.006509530947 3.5284329722 0.006509530947 2.8828780037 0.006509530947 2.084689517 0.006509530947 0.006509530947 0.006509530947 
0.006509530947 2.0778346868 0.006509530947 0.006509530947 0.006509530947 0.53178291998 0.006509530947 0.36084129023 0.006509530947 
0.006509530947 0.006509530947 2.3955086246 0.006509530947 0.006509530947 0.006509530947 0.006509530947 0.006509530947 0.011862353247 
0.006509530947 0.006509530947 0.015421022962 0.006509530947 0.006509530947 0.006509530947 1.9729242297 0.12730323777 0.042134631366 
0.030967700988 0.23188713279 0.006509530947 0.006509530947 0.006509530947 2.0269937714 0.006509530947 3.5559423248 0.006509530947 
2.4413200201 2.8061709342 1.1958778543 3.5702530424 0.006509530947 0.006509530947 0.070046345611 3.2029024357 0.006509530947 
0.006509530947 0.006509530947 0.006509530947 0.062576769479 3.4316682406 1.0272751608 0.006509530947 4.208338551 0.006509530947 
0.006509530947 0.006509530947 0.006509530947 3.2833609525 0.006509530947 0.41453698364 0.006509530947 0.006509530947 0.006509530947 
0.006509530947 0.016481170634 0.006509530947 0.006509530947 0.006509530947 0.006509530947 0.006509530947 0.006509530947 3.660878526 
0.006509530947 0.026345031771 0.006509530947 2.2331255507 0.006509530947 0.006509530947 0.006509530947 0.006509530947 0.006509530947 
1.5072691321 0.68261355104 0.006509530947 0.006509530947 0.006509530947 0.016264418724 0.006509530947 0.006509530947 0.025221686162 
0.006509530947 3.049299804 0.006509530947 0.006509530947 2.1580610674 1.1044222379 0.13107051599 0.006509530947 0.006509530947 
0.006509530947 0.006509530947 2.3169896158 0.006509530947 0.43850652111 0.006509530947 0.29179128577 0.056215527121 0.006509530947 
0.006509530947 0.020172445297 0.006509530947 0.006509530947 0.42455725533 0.0088675401206 1.0348680253 0.006509530947 0.42311303709 
0.006509530947 2.0978849352 0.006509530947 0.006509530947 0.006509530947 0.006509530947 0.006509530947 3.3305718461 3.1402448155 
0.1155702437 0.086926058055 0.006509530947 0.006509530947 0.006509530947 9.1143925975e-221 0.063379227234 0.006509530947 0.006509530947 
0.079150948378 2.1639945046 2.3189596007 0.37218328278 0.006509530947 2.013835013 0.006509530947 0.011716629782 2.9445941081 
0.006509530947 0.006509530947 3.2976816268 0.046399302098 0.006509530947 0.018493953207 2.8067830915 0.006509530947 0.012427199798 
3.3708957021 0.006509530947 3.4899346603 0.006509530947 2.4477800173 0.006509530947 0.006509530947 0.13930860189 0.006509530947 
3.6419357433 3.5849402661 0.23821266284 0.006509530947 2.6852267843 0.21758906826 0.006509530947 0.006509530947 0.006509530947 
1.7525313031 0.006509530947 2.8287693808 0.006509530947 3.5574181489 0.006509530947 0.15098125528 0.006509530947 0.006509530947 
0.024309929425 0.006509530947 0.006509530947 0.006509530947 0.006509530947 3.7213779356 0.006509530947 0.17729423263 0.21767761583 
0.006509530947 2.8475773657 0.006509530947 0.006509530947 0.023108107555 0.19908613206 0.006509530947 3.0770321124 0.006509530947 
0.006509530947 0.006509530947 2.339988495 0.006509530947 0.006509530947 0.006509530947 0.006509530947 0.006509530947 0.069796390109 
2.937345016 0.006509530947 0.006509530947 0.006509530947 0.006509530947 0.765233843 0.006509530947 0.062635981154 0.006509530947 
0.006509530947 0.006509530947 0.006509530947 2.8540518677 0.006509530947 0.006509530947 0.006509530947 1.7313927191 2.2914722798 
0.006509530947 0.0575077366 0.019711822856 0.006509530947 3.0248183565 0.006509530947 0.60362189316 0.006509530947 0.006509530947 
0.006509530947 2.2580167159 0.006509530947 0.53485946401 0.23751720792 0.006509530947 2.6872666735 0.006509530947 0.006509530947 
0.24806526115 0.006509530947 0.02812944873 0.006509530947 0.006509530947 0.006509530947 0.006509530947 0.006509530947 0.006509530947 
0.006509530947 0.006509530947 0.006509530947 0.006509530947 0.006509530947 0.006509530947 0.006509530947 0.006509530947 0.006509530947 
0.006509530947 0.083924171785 0.006509530947 0.006509530947 0.006509530947 0.006509530947 0.006509530947 2.3974031651 0.006509530947 
0.12721474877 0.006509530947 0.006509530947 0.23075699078 0.045349415649 0.016511723266 0.44249308518 0.04290277788 0.006509530947 
2.2184697837 0.006509530947 1.1634427365 0.006509530947 2.7938541324 3.7352327785 0.006509530947 0.006509530947 0.006509530947 
0.006509530947 0.021768555575 0.006509530947 2.593804017 0.006509530947 0.006509530947 3.5129176945 0.006509530947 0.026499095431 
0.006509530947 0.006509530947 0.006509530947 3.5971475289 0.006509530947 0.006509530947 0.006509530947 3.7805555095 0.006509530947 
0.093900083019 2.4791439159 0.006509530947 0.006509530947 0.006509530947 0.006509530947 0.16755352331 0.006509530947 0.018098974209 
2.3015480486 0.006509530947 0.087908247187 0.050725655419 2.5430557542 1.7105074367 0.22796007667 0.27543180369 0.006509530947 
0.13696875688 1.1738133734 0.050761665309 0.006509530947 0.006509530947 3.5592748475 0.006509530947 0.006509530947 0.006509530947 
0.006509530947 0.006509530947 0.006509530947 0.006509530947 0.006509530947 0.5749358062 0.045882178015 0.006509530947 0.006509530947 
0.006509530947 0.006509530947 0.006509530947 0.006509530947 0.006509530947 0.006509530947 0.006509530947 0.006509530947 3.2131912645 
0.006509530947 0.006509530947 0.006509530947 0.006509530947 0.006509530947 0.71889838763 0.006509530947 0.006509530947 0.006509530947 
0.006509530947 3.1849104874 0.006509530947 0.13045170843 0.006509530947 0.006509530947 2.0065215531 0.006509530947 1.15445177 
0.10219184502 0.006509530947 2.6892832341 0.066879128892 2.6327188431 0.006509530947 2.8320613985 2.9789607513 2.5418216413 
0.9528848259 0.94276430113 3.6081898468 3.1254826305 0.57543024334 0.006509530947 3.1387264891 0.006509530947 0.006509530947 
0.006509530947 0.006509530947 0.006509530947 0.006509530947 0.006509530947 0.006509530947 0.92463376871 3.6479420657 0.006509530947 
0.006509530947 2.1570415941 0.006509530947 0.006509530947 0.006509530947 0.006509530947 0.006509530947 0.006509530947 2.6324800776 
0.006509530947 0.1029175973 0.006509530947 3.2521936839 0.006509530947 0.006509530947 0.090814954606 0.006509530947 0.006509530947 
0.006509530947 0.006509530947 0.006509530947 0.006509530947 0.97726621657 0.060253489827 3.7310919402 0.006509530947 0.3539411957 
0.54256304774 0.006509530947 2.7023864279 3.3819996322 0.006509530947 3.1273298411 4.207451153 0.006509530947 0.006509530947 
0.006509530947 0.006509530947 0.006509530947 0.006509530947 3.024008488 0.006509530947 2.9377329136 0.075103650372 0.006509530947 
0.006509530947 3.4426978096 0.006509530947 3.5759059028 0.006509530947 0.006509530947 0.006509530947 0.026613078765 0.006509530947 
0.006509530947 0.006509530947 0.006509530947 0.006509530947 0.006509530947 0.006509530947 0.006509530947 0.006509530947 0.006509530947 
0.006509530947 0.006509530947 0.006509530947 0.006509530947 0.90008823357 0.006509530947 0.006509530947 0.006509530947 0.006509530947 
0.015995900951 0.006509530947 0.006509530947 0.3212754809 3.3793558083 0.006509530947 0.006509530947 1.4124093249 0.11742761881 
3.5904946595 5.9276752086e-206 2.1862474456e-206 0.006509530947 0.006509530947 2.51071969 0.16854866552 2.1099450912 0.032532527508 
0.8993647971 0.006509530947 4.2867758278 0.006509530947 2.1701853468 0.006509530947 3.5285393621 2.2381029536 0.18702808167 
3.7318142892 0.006509530947 2.3541956107 0.006509530947 0.006509530947 4.0720809329 0.006509530947 0.006509530947 0.006509530947 
3.8797969045 0.006509530947 0.006509530947 3.3910086658 0.34810910629 0.006509530947 0.006509530947 2.155618645 0.006509530947 
0.006509530947 0.006509530947 0.006509530947 0.046387137367 7.4874423151e-221 0.924143338 0.006509530947 0.006509530947 1.35856826 
0.006509530947 0.006509530947 3.7001731496 0.006509530947 0.006509530947 0.092267012046 0.006509530947 0.006509530947 0.006509530947 
0.006509530947 0.006509530947 0.006509530947 0.006509530947 2.886116337 0.11637495138 0.006509530947 3.5662211212 0.006509530947 
0.006509530947 2.0526866039 0.006509530947 0.12564058933 0.006509530947 0.006509530947 0.006509530947 0.006509530947 0.006509530947 
0.006509530947 0.006509530947 0.006509530947 0.015887476089 0.006509530947 0.006509530947 3.4047840898 2.2209289664 0.006509530947 
1.8056508916 2.0304155573 0.006509530947 1.9752113534 2.1737116692 0.006509530947 2.0551775348 0.006509530947 2.4415832089 
0.090303750979 0.006509530947 0.006509530947 2.6118711104 0.006509530947 0.006509530947 2.5166910577 0.006509530947 0.006509530947 
0.006509530947 0.006509530947 0.006509530947 0.006509530947 2.9929954139 3.2678770942 3.1482978912 0.006509530947 3.2674464257 
0.006509530947 0.006509530947 0.006509530947 0.006509530947 0.006509530947 0.006509530947 0.006509530947 2.0068680235 0.006509530947 
0.006509530947 0.006509530947 0.012242180679 0.006509530947 2.4372955408 0.006509530947 2.6197319794 0.006509530947 0.006509530947 
0.006509530947 2.0528032866 2.9358283668 0.006509530947 0.006509530947 0.006509530947 0.006509530947 0.006509530947 0.006509530947 
0.006509530947 0.053321152566 0.006509530947 0.006509530947 0.006509530947 2.3515876699 0.006509530947 2.2667090146 0.006509530947 
0.006509530947 0.006509530947 0.006509530947 0.006509530947 0.006509530947 0.006509530947 0.006509530947 0.006509530947 0.006509530947 
0.006509530947 0.006509530947 0.006509530947 0.006509530947 0.006509530947 0.006509530947 0.006509530947 0.006509530947 0.006509530947 
0.006509530947 0.35280861563 0.006509530947 0.006509530947 2.4598804964 0.006509530947 0.006509530947 0.006509530947 0.10258287611 
0.08013700524 0.006509530947 0.01608187995 0.57501501846 3.0664367443 3.6792229412 0.006509530947 0.006509530947 0.006509530947 
0.006509530947 0.012262472912 0.006509530947 0.006509530947 0.006509530947 2.6444969836 2.7072038689 0.006509530947 0.006509530947 
0.006509530947 0.006509530947 0.006509530947 3.4683266319 2.1858635578 0.006509530947 0.06859934324 0.006509530947 2.470804825 
0.006509530947 0.006509530947 0.006509530947 3.1908323529 0.006509530947 0.006509530947 0.035798843992 0.006509530947 0.006509530947 
0.006509530947 0.006509530947 1.3429633821 0.006509530947 0.006509530947 0.006509530947 0.055341412652 0.006509530947 0.006509530947 
3.1125839015 0.006509530947 2.5947178102 0.058805908925 0.006509530947 0.006509530947 0.006509530947 2.381707742 0.006509530947 
0.006509530947 0.006509530947 0.006509530947 0.006509530947 1.3821118745e-164 3.4620613704e-164 1.1522469916e-164 0.006509530947 2.8248539859 
2.8008025255 0.006509530947 0.006509530947 0.006509530947 0.006509530947 1.7148229539 0.006509530947 0.006509530947 0.006509530947 
0.006509530947 3.7735464365 0.006509530947 2.1129195773 0.006509530947 0.016651872572 0.006509530947 2.3584414383 2.4481241079 
0.006509530947 0.006509530947 0.006509530947 0.043914246418 0.006509530947 0.064893437349 0.006509530947 0.006509530947 0.006509530947 
0.006509530947 0.006509530947 0.006509530947 0.006509530947 0.046950720836 2.1882405167 1.9865467324 2.0860651335 0.006509530947 