# vtk DataFile Version 4.2
vtk output
ASCII
DATASET UNSTRUCTURED_GRID
POINTS 4342 double
-0.6 -0.6 0 0.6 -0.6 0 0.6 0.6 0 
-0.6 0.6 0 0 0 0 -0.58 -0.6 0 
-0.56 -0.6 0 -0.54 -0.6 0 -0.52 -0.6 0 
-0.5 -0.6 0 -0.48 -0.6 0 -0.46 -0.6 0 
-0.44 -0.6 0 -0.42 -0.6 0 -0.4 -0.6 0 
-0.38 -0.6 0 -0.36 -0.6 0 -0.34 -0.6 0 
-0.32 -0.6 0 -0.3 -0.6 0 -0.28 -0.6 0 
-0.26 -0.6 0 -0.24 -0.6 0 -0.22 -0.6 0 
-0.2 -0.6 0 -0.18 -0.6 0 -0.16 -0.6 0 
-0.14 -0.6 0 -0.12 -0.6 0 -0.1 -0.6 0 
-0.08 -0.6 0 -0.06 -0.6 0 -0.04 -0.6 0 
-0.02 -0.6 0 -8.881784197e-16 -0.6 0 0.02 -0.6 0 
0.04 -0.6 0 0.06 -0.6 0 0.08 -0.6 0 
0.1 -0.6 0 0.12 -0.6 0 0.14 -0.6 0 
0.16 -0.6 0 0.18 -0.6 0 0.2 -0.6 0 
0.22 -0.6 0 0.24 -0.6 0 0.26 -0.6 0 
0.28 -0.6 0 0.3 -0.6 0 0.32 -0.6 0 
0.34 -0.6 0 0.36 -0.6 0 0.38 -0.6 0 
0.4 -0.6 0 0.42 -0.6 0 0.44 -0.6 0 
0.46 -0.6 0 0.48 -0.6 0 0.5 -0.6 0 
0.52 -0.6 0 0.54 -0.6 0 0.56 -0.6 0 
0.58 -0.6 0 0.6 -0.58 0 0.6 -0.56 0 
0.6 -0.54 0 0.6 -0.52 0 0.6 -0.5 0 
0.6 -0.48 0 0.6 -0.46 0 0.6 -0.44 0 
0.6 -0.42 0 0.6 -0.4 0 0.6 -0.38 0 
0.6 -0.36 0 0.6 -0.34 0 0.6 -0.32 0 
0.6 -0.3 0 0.6 -0.28 0 0.6 -0.26 0 
0.6 -0.24 0 0.6 -0.22 0 0.6 -0.2 0 
0.6 -0.18 0 0.6 -0.16 0 0.6 -0.14 0 
0.6 -0.12 0 0.6 -0.1 0 0.6 -0.08 0 
0.6 -0.06 0 0.6 -0.04 0 0.6 -0.02 0 
0.6 -8.881784197e-16 0 0.6 0.02 0 0.6 0.04 0 
0.6 0.06 0 0.6 0.08 0 0.6 0.1 0 
0.6 0.12 0 0.6 0.14 0 0.6 0.16 0 
0.6 0.18 0 0.6 0.2 0 0.6 0.22 0 
0.6 0.24 0 0.6 0.26 0 0.6 0.28 0 
0.6 0.3 0 0.6 0.32 0 0.6 0.34 0 
0.6 0.36 0 0.6 0.38 0 0.6 0.4 0 
0.6 0.42 0 0.6 0.44 0 0.6 0.46 0 
0.6 0.48 0 0.6 0.5 0 0.6 0.52 0 
0.6 0.54 0 0.6 0.56 0 0.6 0.58 0 
0.58 0.6 0 0.56 0.6 0 0.54 0.6 0 
0.52 0.6 0 0.5 0.6 0 0.48 0.6 0 
0.46 0.6 0 0.44 0.6 0 0.42 0.6 0 
0.4 0.6 0 0.38 0.6 0 0.36 0.6 0 
0.34 0.6 0 0.32 0.6 0 0.3 0.6 0 
0.28 0.6 0 0.26 0.6 0 0.24 0.6 0 
0.22 0.6 0 0.2 0.6 0 0.18 0.6 0 
0.16 0.6 0 0.14 0.6 0 0.12 0.6 0 
0.1 0.6 0 0.08 0.6 0 0.06 0.6 0 
0.04 0.6 0 0.02 0.6 0 8.881784197e-16 0.6 0 
-0.02 0.6 0 -0.04 0.6 0 -0.06 0.6 0 
-0.08 0.6 0 -0.1 0.6 0 -0.12 0.6 0 
-0.14 0.6 0 -0.16 0.6 0 -0.18 0.6 0 
-0.2 0.6 0 -0.22 0.6 0 -0.24 0.6 0 
-0.26 0.6 0 -0.28 0.6 0 -0.3 0.6 0 
-0.32 0.6 0 -0.34 0.6 0 -0.36 0.6 0 
-0.38 0.6 0 -0.4 0.6 0 -0.42 0.6 0 
-0.44 0.6 0 -0.46 0.6 0 -0.48 0.6 0 
-0.5 0.6 0 -0.52 0.6 0 -0.54 0.6 0 
-0.56 0.6 0 -0.58 0.6 0 -0.6 0.58 0 
-0.6 0.56 0 -0.6 0.54 0 -0.6 0.52 0 
-0.6 0.5 0 -0.6 0.48 0 -0.6 0.46 0 
-0.6 0.44 0 -0.6 0.42 0 -0.6 0.4 0 
-0.6 0.38 0 -0.6 0.36 0 -0.6 0.34 0 
-0.6 0.32 0 -0.6 0.3 0 -0.6 0.28 0 
-0.6 0.26 0 -0.6 0.24 0 -0.6 0.22 0 
-0.6 0.2 0 -0.6 0.18 0 -0.6 0.16 0 
-0.6 0.14 0 -0.6 0.12 0 -0.6 0.1 0 
-0.6 0.08 0 -0.6 0.06 0 -0.6 0.04 0 
-0.6 0.02 0 -0.6 8.881784197e-16 0 -0.6 -0.02 0 
-0.6 -0.04 0 -0.6 -0.06 0 -0.6 -0.08 0 
-0.6 -0.1 0 -0.6 -0.12 0 -0.6 -0.14 0 
-0.6 -0.16 0 -0.6 -0.18 0 -0.6 -0.2 0 
-0.6 -0.22 0 -0.6 -0.24 0 -0.6 -0.26 0 
-0.6 -0.28 0 -0.6 -0.3 0 -0.6 -0.32 0 
-0.6 -0.34 0 -0.6 -0.36 0 -0.6 -0.38 0 
-0.6 -0.4 0 -0.6 -0.42 0 -0.6 -0.44 0 
-0.6 -0.46 0 -0.6 -0.48 0 -0.6 -0.5 0 
-0.6 -0.52 0 -0.6 -0.54 0 -0.6 -0.56 0 
-0.6 -0.58 0 0.25 -0.58267949192 0 -0.25 -0.58267949192 0 
-0.24969338163 0.58271630631 0 0.58313820224 0.25089999788 0 -0.58073798855 0.23055415423 0 
0.23 0.58267949192 0 0.5822727489 -0.23023532651 0 -0.58232885758 -0.22986293355 0 
-0.13 -0.58267949192 0 0.58091085312 0.12866705289 0 -0.13050081 0.58443309409 0 
0.13 -0.58267949192 0 0.11 0.58267949192 0 0.58128887437 -0.11185352307 0 
-0.58641004823 0.11046978504 0 -0.58097603768 -0.11235367818 0 -0.01 0.5841811861 0 
0.01 -0.58267949192 0 0.58217507245 0.011050809949 0 -0.58206506685 -0.010494327869 0 
0.58255589861 -0.33012459525 0 -0.58098267687 0.33246863147 0 0.33 0.58267949192 0 
-0.58090018381 -0.32734039494 0 0.35 -0.58267949192 0 0.58210978525 0.34851718814 0 
-0.34984356206 0.58269328777 0 -0.35 -0.58267949192 0 -0.58404031657 -0.41125547479 0 
0.58404031657 -0.41125547479 0 0.41 0.58267949192 0 -0.58127371569 0.40748932397 0 
0.43 -0.58267949192 0 0.58287041801 0.42966930632 0 -0.43030661837 0.58271630631 0 
-0.43 -0.58267949192 0 0.49 0.58267949192 0 0.58119455181 -0.49272606834 0 
-0.58196591894 0.48785347999 0 -0.58132747275 -0.49216380446 0 0.58099079541 0.19297246443 0 
-0.18926154554 0.58413656679 0 0.05 0.58267949192 0 0.19 -0.58267949192 0 
-0.07 -0.58267949192 0 0.58212565717 -0.051217328366 0 -0.07 0.58267949192 0 
0.58245912871 0.070013739955 0 0.07 -0.58267949192 0 0.58168449499 -0.17128271923 0 
-0.58574378526 0.05125913651 0 0.17050081 0.58443309409 0 -0.58168449499 -0.17128271923 0 
-0.58573295936 0.16883725031 0 -0.19 -0.58267949192 0 0.49 -0.58267949192 0 
-0.49050081 0.58443309409 0 0.58415322569 0.48921568047 0 -0.49 -0.58267949192 0 
0.53 -0.58267949192 0 0.58203286059 0.53119351335 0 -0.53 0.58267949192 0 
-0.58222913959 -0.53018403998 0 0.58202539473 0.28969699417 0 -0.29 0.58267949192 0 
-0.58451963751 -0.45057023735 0 -0.58267949192 -0.07 0 -0.29 -0.58267949192 0 
-0.03 -0.58267949192 0 0.39 -0.58267949192 0 0.58307204747 0.39068583015 0 
-0.39 0.58373814012 0 0.29 -0.58267949192 0 0.58208722445 -0.45065236781 0 
0.45042926572 0.58129593389 0 -0.58211115223 0.44955595746 0 -0.58432719917 -0.36932980655 0 
-0.58406793967 -0.26883049013 0 0.5820526686 -0.36901719046 0 0.37 0.58267949192 0 
-0.5823078615 0.36998422007 0 -0.39 -0.58267949192 0 -0.58211498987 0.271305057 0 
-0.53 -0.58267949192 0 0.58222913959 -0.53018403998 0 0.53 0.58373814012 0 
-0.58219774606 0.53090792334 0 0.58030324732 -0.28813008885 0 0.29050081 0.58443309409 0 
-0.58188605505 -0.56816348762 0 0.56922649731 -0.58312607391 0 0.58067979276 0.57009350437 0 
-0.57009384201 0.58146184644 0 0.54987108288 -0.58275392226 0 0.53997851381 -0.5653713889 0 
0.51999641897 -0.56536105136 0 0.52999582213 -0.54804088787 0 0.50999870685 -0.54803922237 0 
0.51999908816 -0.53071849415 0 0.4999996325 -0.53071817987 0 0.50999978678 -0.51339758273 0 
0.48999990321 -0.5133975155 0 0.49999994833 -0.49607698138 0 0.47999997526 -0.49607696583 0 
0.48999998726 -0.47875645082 0 0.46999999375 -0.47875644708 0 0.47999999684 -0.46143593722 0 
0.45999999843 -0.4614359363 0 0.46999999921 -0.44411542777 0 0.44999999961 -0.44411542755 0 
0.4599999998 -0.42679491936 0 0.4399999999 -0.4267949193 0 0.44999999995 -0.4094744112 0 
0.42999999998 -0.40947441118 0 0.43999999999 -0.3921539031 0 0.41999999999 -0.3921539031 0 
0.43 -0.37483339502 0 0.41 -0.37483339502 0 0.42 -0.35751288694 0 
0.4 -0.35751288694 0 0.41 -0.34019237886 0 0.39 -0.34019237886 0 
0.4 -0.32287187079 0 0.38 -0.32287187079 0 0.39 -0.30555136271 0 
0.37 -0.30555136271 0 0.38 -0.28823085464 0 0.36 -0.28823085464 0 
0.37 -0.27091034656 0 0.35 -0.27091034656 0 0.36 -0.25358983849 0 
0.34 -0.25358983849 0 0.35 -0.23626933041 0 0.33 -0.27091034656 0 
0.32 -0.25358983849 0 0.31 -0.27091034656 0 0.3 -0.25358983849 0 
0.29 -0.27091034656 0 0.28 -0.25358983849 0 0.27 -0.27091034656 0 
0.26 -0.25358983849 0 0.25 -0.27091034656 0 0.27 -0.23626933041 0 
0.24 -0.25358983849 0 0.23 -0.27091034656 0 0.22 -0.25358983849 0 
0.21 -0.27091034656 0 0.2 -0.25358983849 0 0.19 -0.27091034656 0 
0.18 -0.25358983849 0 0.17 -0.27091034656 0 0.19 -0.23626933041 0 
0.16 -0.25358983849 0 0.15 -0.27091034656 0 0.14 -0.25358983849 0 
0.13 -0.27091034656 0 0.12 -0.25358983849 0 0.11 -0.27091034656 0 
0.1 -0.25358983849 0 0.09 -0.27091034656 0 0.08 -0.25358983849 0 
0.07 -0.27091034656 0 0.06 -0.25358983849 0 0.05 -0.27091034656 0 
0.04 -0.25358983849 0 0.03 -0.27091034656 0 0.02 -0.25358983849 0 
0.01 -0.27091034656 0 -1.7474921972e-14 -0.25358983849 0 -0.01 -0.27091034656 0 
-0.02 -0.25358983849 0 -0.03 -0.27091034656 0 -0.04 -0.25358983849 0 
-0.05 -0.27091034656 0 -0.06 -0.25358983849 0 -0.07 -0.27091034656 0 
-0.08 -0.25358983849 0 -0.09 -0.27091034656 0 -0.1 -0.25358983849 0 
-0.11 -0.27091034656 0 -0.12 -0.25358983849 0 -0.13 -0.27091034656 0 
-0.14 -0.25358983849 0 -0.15 -0.27091034656 0 -0.16 -0.25358983849 0 
-0.17 -0.27091034656 0 -0.18 -0.25358983849 0 -0.19 -0.27091034656 0 
-0.2 -0.25358983849 0 -0.21 -0.27091034656 0 -0.22 -0.25358983849 0 
-0.21 -0.23626933041 0 -0.23 -0.23626933041 0 -0.22 -0.21894882233 0 
-0.23 -0.27091034656 0 -0.24 -0.21894882233 0 -0.23 -0.20162831426 0 
-0.25 -0.20162831426 0 -0.24 -0.18430780618 0 -0.26 -0.18430780618 0 
-0.25 -0.16698729811 0 -0.27 -0.16698729811 0 -0.26 -0.14966679003 0 
-0.27 -0.20162831426 0 -0.28 -0.14966679003 0 -0.27 -0.13234628196 0 
-0.29 -0.13234628196 0 -0.28 -0.11502577388 0 -0.3 -0.11502577388 0 
-0.29 -0.097705265805 0 0.22 -0.28823085464 0 0.1 -0.28823085464 0 
-0.1 -0.28823085464 0 -0.22 -0.28823085464 0 -0.24 -0.28823085464 0 
0.02 -0.28823085464 0 -0.31 -0.13234628196 0 -0.31 -0.097705265805 0 
-0.3 -0.080384757729 0 -0.28 -0.080384757729 0 -0.29 -0.063064249654 0 
-0.31 -0.063064249654 0 -0.3 -0.045743741578 0 -0.28 -0.045743741578 0 
-0.29 -0.028423233502 0 -0.27 -0.028423233502 0 -0.28 -0.011102725427 0 
-0.3 -0.011102725427 0 -0.29 0.0062177826491 0 -0.27 0.0062177826491 0 
-0.28 0.023538290725 0 -0.26 0.023538290725 0 -0.27 0.0408587988 0 
-0.25 0.0408587988 0 -0.26 0.058179306876 0 -0.24 0.058179306876 0 
-0.25 0.075499814952 0 -0.23 0.075499814952 0 -0.24 0.092820323028 0 
-0.22 0.092820323028 0 -0.23 0.1101408311 0 -0.21 0.1101408311 0 
-0.22 0.12746133918 0 -0.2 0.12746133918 0 -0.21 0.14478184725 0 
-0.19 0.14478184725 0 -0.2 0.16210235533 0 -0.18 0.16210235533 0 
-0.19 0.17942286341 0 -0.17 0.17942286341 0 -0.21 0.17942286341 0 
-0.2 0.19674337148 0 -0.22 0.19674337148 0 -0.21 0.21406387956 0 
-0.23 0.21406387956 0 -0.22 0.23138438763 0 -0.24 0.23138438763 0 
-0.23 0.24870489571 0 -0.21 0.24870489571 0 -0.25 0.24870489571 0 
-0.27 0.075499814952 0 -0.22 0.26602540378 0 -0.2 0.26602540378 0 
-0.21 0.28334591186 0 -0.19 0.28334591186 0 -0.31 0.0062177826491 0 
-0.23 -0.16698729811 0 0.11 -0.23626933041 0 -0.2 0.30066641994 0 
-0.18 0.30066641994 0 -0.23 -0.30555136271 0 -0.25 -0.30555136271 0 
0.39 -0.37483339502 0 -0.09 -0.23626933041 0 -0.19 0.31798692801 0 
[...]
CELL_DATA 8442
FIELD FieldData 1
flux 1 8442 double
7.7667624639e-15 3.3289591572e-09 4.3702922017e-09 1.0643721677e-08 4.350178071e-08 1.1898683265e-14 3.8342173738e-08 2.061230701e-08 3.9732319967e-08 
1.8116804463e-08 1.1471238028e-09 1.2810102077e-10 6.0258381635e-09 1.2853170246e-08 1.4033339935e-17 4.3945968945e-09 1.5442725307e-11 1.0798843673e-08 
2.0257755621e-10 1.7279318235e-08 8.5049067419e-09 8.1059217939e-18 1.2554325988e-14 4.3538818081e-13 2.1366188701e-08 3.7740427211e-14 1.900171009e-13 
8.2274701377e-10 2.3352635284e-10 1.6067731098e-08 5.7505056256e-10 1.9602121762e-11 4.9098995358e-08 3.2149843879e-08 1.1063368865e-08 2.5744197161e-08 
5.4279733906e-08 5.9308318926e-09 1.0002467744e-08 1.3788601821e-08 1.6283635257e-09 1.9440397952e-17 1.4566205842e-10 4.2322474005e-08 3.1924702421e-09 
3.0620707038e-07 1.9543522023e-07 2.6040111363e-16 1.1528061764e-16 2.9926917512e-10 8.1497802966e-09 8.7781511104e-11 3.4089118282e-15 1.0933602275e-14 
4.5648737588e-10 5.5214593812e-09 1.4284500322e-10 3.3357084464e-08 1.9910780264e-08 1.2764295407e-08 2.4161126721e-08 6.8169696241e-228 5.7612734981e-08 
1.1246726616e-118 4.1004257189e-12 1.4557527314e-09 4.4541295791e-12 1.9180216714e-18 3.3965297423e-139 3.9555788938e-08 5.5202420715e-08 2.3739205721e-13 
4.4993752949e-09 1.1838698986e-120 2.5114682444e-09 1.5350301585e-13 5.6731076404e-08 2.7917495561e-08 4.0246829967e-08 5.0885593329e-08 6.8588696589e-08 
3.6909597626e-08 5.9635911887e-15 2.184383101e-06 1.1454259243e-06 3.8676917418e-07 1.0191028327e-06 6.2868768582e-17 7.439662667e-17 2.1222505548e-125 
2.1222505548e-125 1.3046071705e-08 4.8426332661e-08 1.0537292246e-10 6.58204822e-11 4.7980075803e-08 4.9566353025e-09 5.788473416e-09 3.4892845965e-09 
1.249179075e-10 5.3261067872e-20 1.1730644306e-09 3.655081964e-08 5.9688381841e-08 1.8103601664e-12 3.2442574699e-08 1.4303281682e-10 2.5860586116e-08 
4.8469649505e-16 1.02491035e-15 3.688786999e-18 7.3801575285e-11 3.2933015799e-14 3.6455494259e-15 9.6676488368e-13 4.138856111e-12 3.5082312364e-08 
2.8805215204e-08 3.24464327e-08 5.2797265986e-08 5.8879728657e-08 8.4912487237e-10 2.3392515974e-08 3.1947089045e-08 3.8281478499e-08 4.4851708158e-08 
3.0972822675e-09 4.8342653388e-09 4.5244233708e-08 7.1472228202e-08 1.1547615501e-08 1.685451047e-08 4.8864862898e-18 1.2831895671e-09 1.828468169e-08 
3.9165102757e-10 8.4469299362e-14 3.270209598e-11 1.9504620005e-11 4.5368802228e-09 8.0598011572e-09 113.71424475 113.66171388 2.1597656677e-08 
2.5556383369e-08 1.6337060772e-08 1.029571279e-17 8.868005783e-10 6.7433653533e-08 9.5993199684e-09 6.3178137321e-08 1.5402225956e-10 8.0756925902e-10 
7.5176955989e-15 1.2369441373e-15 5.0879075194e-15 2.5677897881e-15 2.3770327181e-08 1.2380012745e-08 2.7569214821e-10 5.434840122e-10 3.6747016385e-08 
1.3295553866e-14 7.1341638714e-15 8.1785903892e-09 1.0496496207e-11 4.1246753168e-13 1.1380691037e-09 7.2190121708e-08 2.3280762613e-08 9.3167084377e-14 
1.1547666315e-08 3.8095161328e-08 114.21551097 114.20830629 7.1970489186e-14 114.39599639 114.32383296 2.7119836373e-08 1.4829017445e-13 
1.8310057255e-10 4.1687189243e-09 4.5220085089e-09 1.3166971109e-19 1.047184861e-08 4.2368256381e-08 3.334252517e-20 4.8565552439e-10 1.7272444935e-11 
7.6674278843e-13 1.3828551413e-17 1.7168077375e-17 1.8322669792e-10 1.4100857295e-12 1.2480718752e-11 9.3408903462e-09 3.4007460757e-07 4.3430978065e-07 
4.9575630432e-11 1.6357751758e-07 1.3802498061e-06 6.2274864756e-07 6.4141667162e-06 1.2754501887e-05 1.696054171e-06 5.7584508001e-06 2.3397897012e-07 
6.9546140734e-07 8.6112740053e-07 1.4808309213e-07 1.7927269735e-07 9.1318240624e-07 1.139416429e-07 2.2966447539e-07 7.3552125909e-07 1.1825980222e-07 
1.2574872839e-06 8.3832019729e-07 4.3678747579e-10 5.3837749754e-06 1.1750347699e-13 3.2481348618e-12 2.915245909e-12 1.4129040798e-10 4.6083474543e-12 
3.7602025061e-06 1.9792919002e-07 0.35687688902 0.31921572451 0.3319076559 0.39568023108 0.33650980209 0.00017449787926 0.32457749425 
2.2325609411e-07 1.2978872108e-05 0.0080258587532 0.063074381553 0.090060375458 0.24504219337 0.3480004919 0.2774560441 0.34445680516 
0.13809593501 0.3374661904 0.25211459232 0.0017078813424 0.24553030796 6.0380130408e-07 0.27369898428 4.937624993e-05 0.11154281629 
0.00024802665478 4.5041634925e-07 9.8643380407e-05 3.0724237849e-07 0.0032655529059 1.1475083011e-06 2.8036314414e-06 8.2590853146e-08 0.00059257069792 
7.8954727385e-11 0.25060808264 0.28133681721 0.5661240044 4.2245948323e-05 1.490194514e-05 0.2564405386 3.5773291217e-06 0.24616460743 
0.0017877562989 8.4441593775e-05 0.0028059891931 0.29121373391 0.037471169729 0.12667989448 0.2823305815 4.8532958815e-06 3.499953204e-15 
6.9402227977e-16 0.13928647978 0.00019464596458 0.00029182577703 0.0097605598448 0.25142762455 0.17123718082 4.4629271063e-08 0.037593462983 
2.7370931195 0.0026552515368 0.00027487347018 0.1908211492 7.055566199 0.00084565984971 7.5818883253 0.00021501596676 0.28485197944 
0.32781842045 -0.13169788136 -0.23650703687 2.6231084442e-14 0.065684619365 0.1871271467 0.25450129343 7.3059131919 0.086948315145 
3.3806682854 0.0021622767897 0.00026317232912 2.0040964805e-07 4.4272041257 0.020161927223 0.00061789287168 1.6408962656e-06 -0.32398627899 
0.00064088107925 0.023182206723 0.09125894867 0.040694936358 0.0012100598893 0.0082306654456 1.346423082e-05 0.33164835112 6.9186865243 
0.0058027167965 0.065866941448 0.16958519127 0.29638310266 -0.25633089314 1.8036335777e-06 -0.27653788701 0.28534149948 5.1841282523e-06 
0.0062198083054 0.05581635091 0.0011569355243 -0.28726176819 0.024564211272 -0.25084349194 -0.11750367828 0.00012397595057 -0.21775592563 
4.4163319226e-05 -0.17040810033 0.28750495471 -0.33042511176 -0.28792296872 0.26179691054 0.27607969619 0.11779705323 7.6090631677e-16 
-0.296023138 0.035545075066 7.6510030503e-08 2.4828155017e-06 0.097688319339 0.13543267274 -0.068344432158 -0.21163780324 6.3186042249e-06 
0.014319620388 -0.2331087281 0.059548074361 8.3307157799e-06 0.27404861386 0.49792064997 -0.082928332919 0.33002199453 0.0014911616647 
0.33775369709 1.6879509352e-05 4.622600801e-06 3.0351743907 0.28643895752 0.050204026115 0.3289055457 0.75068529661 0.12552427696 
7.3193688889e-06 1.9294384054 5.2077996026e-07 1.4491839567e-08 0.45469967872 0.82996895269 2.852785901e-07 0.19677464554 0.56282501217 
0.11887651501 0.0015577175064 2.3631060674e-07 0.042459698783 0.11689132251 0.084992939752 0.0068147032941 0.050516049233 1.1759653199e-09 
0.0020159912507 0.0083423717066 0.0039312939307 0.47033597237 0.24370933903 3.7944051469 2.3966021092 4.6560094725e-07 0.069002160767 
0.17933388315 2.0972824398e-07 0.043962797227 5.7735203883e-05 1.3654372541 0.11456515959 -0.36999761974 5.5123125557e-05 0.17124586488 
0.048601331256 -0.36794980351 0.33231777545 1.6890373517e-05 0.062145570096 0.33829867401 -0.27316030036 -0.11802182359 0.090943867987 
9.4454128114e-07 1.0133590919 0.45636949985 0.15908460718 -0.20104915428 5.8301225104 0.37951424972 0.042112899134 0.0035346697369 
0.016721803979 3.4491685304e-07 0.059103762424 0.0049894249551 -0.069140263402 0.062692018535 6.6290824895e-05 1.2031081376e-06 5.1346479895e-07 
2.1608175455e-06 -0.21513390551 -0.2256881438 -0.29386498757 0.54684697951 1.0276175968e-08 6.7791350445 2.1516093808 0.10118760081 
1.484564423e-05 1.2372290334e-06 0.44645978074 0.11349332151 1.3303091253e-16 -0.11532601772 0.1597864304 0.12284706656 0.00015881772109 
2.5714909538e-06 0.10052765842 0.12614995689 0.12676704266 -0.20933341118 -0.2324341235 0.46045972163 5.7582741005e-05 -0.045274326521 
-0.14323777503 0.26312307145 0.043642631587 0.00012103700336 0.34879486046 0.026811939756 0.096673978642 0.48674505859 -0.29007002778 
-0.054846102636 0.17291070704 -0.26028273916 5.734662109e-06 0.00075370949475 0.025893110844 0.19154021278 -0.32060427187 0.00051619179213 
-0.26630664967 -0.26022565467 0.000403731831 0.13441383586 -0.29661332022 0.082617098994 6.932322122e-09 -0.10245815624 6.241477737e-07 
-0.24478326138 6.3552202979e-10 0.19225753693 0.16451342708 -0.33205552503 0.0006289748752 0.33707855154 -0.19317791768 0.2953738907 
8.4004981546e-15 0.42633069381 -0.26831619308 6.7737616617e-06 -0.2416596694 -0.19869798875 0.18924678725 0.0015183845096 0.0080201044796 
9.9323081413e-06 -0.20127980909 0.92195843037 0.22868532915 0.19465895558 0.1226655195 -0.15113505108 1.9800441656e-05 0.037916684934 
0.0015333844733 0.47614799109 0.0085520180636 0.1243308719 -0.16004066182 -0.099748378072 0.068074990114 3.1380074899e-05 0.19337731443 
2.5444860453e-05 -0.079216590604 0.0010522733546 0.11129938382 -0.25444596627 6.2938801556 0.043726105804 0.33237087901 0.35784735062 
0.080164754643 1.4556200568 0.05688615029 -0.36975720881 0.066922690587 0.024148409904 0.31354269026 1.6493078478e-09 0.059995862754 
1.8192516111e-05 4.4842534937 0.015538703848 0.23894371512 0.27229375225 0.018382090097 8.8706601145e-05 7.5475897118e-05 -0.1912275109 
-0.078410892416 0.073617877451 1.7219530008e-05 0.11147076221 -0.035788228792 1.1005473437e-07 0.07372200453 2.2531540142e-06 0.21176721417 
6.8816003319e-09 0.072058345474 0.68789015173 1.5003871891 0.21522097947 0.062197141281 -0.27772559907 4.2056108319e-09 0.34037164863 
5.5660532883e-06 0.35384653216 -0.29727330355 3.2803373518e-08 -0.31094782547 0.027409378614 2.4326587122e-17 0.3572594282 0.043429456971 
0.067665442492 0.45382199064 -0.27556124473 0.012081977636 5.2979627802 0.36087711504 4.9965586287e-07 -0.31503249104 0.31187441802 
0.019845134315 -0.14932509698 0.52475513344 -0.24861675389 0.01411147896 0.098535575225 2.0865597281e-09 0.00033165102952 1.2392119401e-07 
0.087167012558 -0.025457203519 0.023743325472 8.1768821549e-13 1.7332611304e-09 0.81091555383 1.8734767977e-06 0.88310869973 5.6703872847 
0.082530487072 9.8040788589e-07 -0.22434600244 0.00023027362982 0.0097425122379 0.26411793762 0.14317375162 0.08502867334 0.079091277056 
0.13886474219 7.2088241341 0.27098895403 0.24288001548 2.2664233658e-08 1.5463301671e-08 0.10140344435 1.953231614 0.32873509107 
0.24731885387 1.0952812418 1.3606905967e-05 0.42839893706 0.00014414913695 0.088682184205 2.5727024119e-10 -0.28209709572 1.7147442885e-07 
-0.24084973357 -0.28766273851 -0.037922946763 -0.16244460421 4.202649222e-05 0.016000010907 0.32351649241 -0.29586543292 0.0086224578278 
0.13926450095 7.1169288748e-07 0.0048878626777 0.50149976358 -0.35375299311 -0.051125116643 0.041619828343 -0.33221568917 1.066105259e-05 
2.4939437675e-05 0.5329300305 3.9568264839e-05 -0.24499299582 5.8717392044 0.26644588125 0.39062852488 1.0204937087e-07 0.23187304385 
0.016760372611 0.35967094793 6.3728235572 0.013496069374 2.9294177517 0.57885275378 1.8258791851e-05 0.00018106367371 -0.31049774451 
0.0037674436118 0.13274507842 0.034603057764 -0.083669427904 0.42480699001 0.22191720564 1.7537185076e-11 0.067814658242 5.1351535486e-05 
-0.13717261689 0.25789114589 0.0014587149923 2.7464990067e-06 4.5328620012e-07 0.18821633289 2.2486007977e-06 0.060215120254 0.53650983896 
0.00060130057746 -0.30888011597 1.9930677354e-07 0.00098957710389 -0.48320754612 0.20252813297 0.33809679909 1.9644374521e-05 6.4899229892e-06 
0.19409200068 7.9137566313e-06 0.069102785041 0.44417193972 0.39962869318 3.1870096237e-07 1.3559744596 0.35036067434 0.19454531612 
0.19240348518 0.27009600523 1.6146448006e-05 0.18327476743 0.14886969263 0.48254437567 0.20669099285 1.4939897999e-08 0.30502084421 
0.15419403008 0.10158819977 2.2805151513e-08 0.12190332745 1.5559862503e-06 1.5300898113e-06 0.1309975933 -0.35037180685 -0.32566365473 
0.55026348455 1.7079337894 0.00063588114432 2.0948075988e-06 1.134817186e-15 9.1143925975e-221 0.42090124074 9.2967584886e-08 0.00045965782964 
0.67978459357 -0.092484518867 0.067162899385 0.41630787815 0.25225779433 0.025943621034 0.048334622199 6.0292948156 -0.3888444692 
0.00055880670888 0.032510016246 -0.22575402843 0.1694546826 3.3714591091 0.28748854048 -0.29893417135 7.6827733619e-05 0.52942439835 
-0.073692506294 3.5303339553e-07 -0.11893732437 6.6851378922e-17 -0.071209113122 0.00083927374458 0.00023037258534 0.53165695928 1.7458615405e-07 
-0.014541189146 -0.28075529115 0.32361344712 0.00014793145788 -0.27366208036 0.40644901085 0.080156065543 0.0053048283139 0.043968972604 
-0.19609968825 0.28113977199 -0.35343786975 0.00013854391086 -0.0695638161 0.0077891890218 1.401849233 4.9062685755e-05 0.010785323495 
2.5253173445 0.073895216289 0.00014238082813 1.3215247679e-06 0.52457645944 -0.35820807731 1.9667492381 0.33804008622 0.34067588257 
1.0148680814e-06 -0.37547221301 2.1888921069e-05 0.012593690844 0.36080329982 0.48556326194 0.11172228885 -0.10508060037 0.00060505651668 
1.2659820463e-07 2.8169660045e-08 -0.0034105079855 0.049955096061 3.5049671228 2.3810966319e-08 0.0050242742834 0.0039669328358 0.48012648914 
-0.081171588708 0.00079230245064 3.4782741056e-11 0.16807102867 0.0078031748315 0.47691586151 0.0055704852893 0.52848494616 1.6741016756e-06 
5.3325165608e-07 3.1703648818e-09 8.8458337118e-09 -0.35735165246 1.0539759154e-05 2.5216054282e-05 0.068578441118 -0.063612396214 -0.046931246362 
0.00021864747002 0.16961653176 1.9487676998 0.29109356656 -0.3428131415 3.9444403723e-11 0.23238279753 0.18853053687 4.9656905957e-10 
0.00033776368339 -0.021907554108 0.10721878855 0.48489137636 0.32907148495 4.4785458112e-16 -0.50412508682 0.0015524559223 5.1564872539e-06 
0.29969101338 6.9933952229e-05 4.7081792923 5.74740658 3.9064153274 7.9170087636e-05 9.4372286268e-06 0.00027467873994 3.6090246991e-05 
0.0071589679651 0.0011155797245 0.044454991449 3.1080651831 0.00021783398467 1.6704038886 1.0683737707e-08 0.00028950488619 0.00029003200157 
2.5864717255 2.9050272609 9.91760012e-10 0.011486394654 1.241525436e-06 6.0619400166 0.046005925353 -0.25416730314 0.49082053327 
0.33116107551 0.3450347143 9.7438692865e-06 0.60675960202 3.6904370936 0.27005360214 0.19394057259 0.43334316077 0.0035246343037 
-0.29471029755 4.8215002611e-06 0.13945232359 2.6886178836e-05 -0.53246814073 -0.020371420637 7.2108463157 0.11847225211 3.841411919e-08 
0.00015964372072 0.11515707331 2.4933392304 -0.2670578861 6.6452659053e-07 6.5538297129e-08 -0.31976448695 7.313033478e-08 0.4780845634 
2.0280367735e-06 0.0091685862988 1.5010969636e-15 -0.48730504934 8.2258054095e-06 2.7649282174e-13 0.00069205459354 -0.52933334475 1.4579563591e-05 
0.42573204473 -0.037154219131 0.62644012195 6.0153900597e-08 1.0091980961e-12 2.1075160006e-08 1.9334323888 2.1135645131e-09 0.27372676999 
-0.13648363666 0.24856145137 1.6723656544 0.5896670812 -0.21261691077 -0.13625881763 0.26066689609 0.72135720322 0.00030227827088 
0.47944896283 0.062733103081 1.52317908 6.3098372866e-07 0.00010182677146 -0.50531141302 1.545901539e-08 0.28429581073 0.1098711832 
1.9676865968e-09 0.0037989650042 2.2437704498e-08 6.3332810776e-06 0.068600088587 0.099583906044 0.20210757631 0.806366517 0.049387648844 
2.5562497151e-05 0.00011361518334 4.9684181719e-07 0.0032553557593 0.0046499977343 0.00027295644158 3.7157994893e-07 3.9850211033e-07 -0.28502248452 
0.043691797079 0.026276428914 9.1863473136e-07 0.0035573338597 8.94692573e-07 0.034321913319 6.1797417635e-09 0.47875036112 0.0065699894465 
0.0018040885261 -0.33722517611 0.17051507054 0.33258117456 2.6891803318e-05 1.6765819603e-07 0.035812130222 0.00065171139771 0.46217219047 
0.25117257559 8.0717135607e-07 -0.26115494515 0.3426133371 -0.2652494946 4.0545432861 -0.31640679295 -0.14267158998 -0.25136961536 
0.19599732389 0.30788467292 -0.2911116843 -0.55771163503 0.42573608489 4.9971439788e-05 -0.31883588834 1.2054578831e-05 2.2826818191e-06 
3.082441516 7.7892088917e-09 2.7277317725 0.13346733303 0.00016387026091 0.0027371713884 0.010943566674 -0.013784830326 2.6452866845e-07 
3.5077030781e-06 0.049848803099 1.6618599307 0.047508375216 0.00093378221253 0.00032927834987 0.079630627208 0.0032578921694 -0.26598792271 
6.1254967657e-10 3.9082815147 0.45572574001 -0.53767174823 5.101820854e-06 7.304509253e-09 1.0789673434 6.8828854277 4.7273842245 
0.00012155777136 0.00011727916118 1.9792592936 1.1760352553e-05 0.53001149915 0.33554362486 -0.52632797907 6.5366005516e-06 0.45297968022 
0.39042904706 2.6846198209 -0.26962194521 -0.028933816838 3.1546494533e-07 -0.3017598663 -0.32305254636 0.25570535945 0.0056493075105 
1.9289707217e-06 3.5462816313 0.30411710571 1.9317806239 -0.13721028438 1.4680603283e-10 -0.091375219665 2.0015385368 0.19867371043 
0.0052074181378 0.017976851023 0.016178580036 -0.42475288927 0.00067573022498 0.0004104592967 3.0843050882e-06 0.35947153827 5.5905215109e-09 
3.316527304e-05 0.18118070546 5.768042234e-07 0.0010521892596 0.014106570294 4.8323346437e-05 1.1216711364e-08 3.8698159959e-05 0.0016058339209 
6.6558687793e-07 8.0310282381e-08 4.2394923804 7.6136785204e-05 0.41149435104 0.023618536662 4.5832375039 0.13269837018 0.19729303195 
0.31944562443 5.2602074408 0.0013983979695 0.96648782233 -0.47692973554 3.3732982749e-08 0.0043355008466 -0.063171893109 0.34343987279 
-0.36005690556 5.9276752086e-206 2.1862474456e-206 2.1912397536e-05 0.031586772005 -0.18820658592 3.4258843501 -0.066141771552 2.6043556434 
0.43704153089 0.095234397413 -0.24790527854 0.7678828954 -0.001159168641 1.2673895373 -0.53946352912 -0.27030039618 1.0203333137 
-0.47442141274 0.003534380486 -0.27819784932 4.768430025e-05 1.3257635946 -0.14981503109 0.00013067713177 6.6079182627 0.010292072657 
-0.21274969115 7.1726233165 0.0083363184271 -0.55230304394 0.44702017237 0.00011992132744 1.2901629472 0.051987905534 4.2243364266e-07 
3.5051496686 0.55536071084 2.9785315471e-06 0.32784307239 7.4874423151e-221 0.49337978774 0.0038253933728 0.0010169552194 0.45301191427 
0.80761125376 1.2122646429e-05 -0.53499108581 0.00080967197271 2.6700130567 0.33291366062 5.6181423722e-05 0.15817467921 1.4912367722e-05 
1.3985738423e-05 0.011146695203 3.1458327763e-07 3.2883363145e-08 -0.29688364659 0.34184146795 1.9944625731e-06 -0.16247280523 1.6522356271 
4.5559532219 -0.029604236361 6.4199127699 0.49332676799 4.9848001623e-12 1.6248287433e-08 0.17714324675 3.308877206e-08 0.048015283166 
0.34445736788 0.0039117522822 0.027973471061 2.9194350748 0.061054722006 0.3729864474 -0.35864792036 0.088656689035 0.00015299857277 
0.069517947477 0.046474091277 4.5501278483e-07 -0.063361552458 -0.11008776662 5.5163415181e-09 -0.058690281577 1.8150106528e-05 -0.1838875084 
0.3466162235 2.3326927823 4.898191081e-05 -0.013619036741 6.2832348003e-05 0.026882020016 -0.27746481112 2.1462173301e-14 0.047049911375 
4.0287394669 0.00038383144438 3.4327479758 0.00056843255928 -0.57200907076 -0.096720965135 -0.5242744066 0.043372763086 -0.48284760897 
0.0598433988 0.002632438104 3.0196910689 0.00022279851433 0.10736139444 1.6976820545 0.0045359742686 0.045107570417 4.7131648179 
2.2168467105 1.9712305575 0.19503678512 5.4344663557e-07 -0.072991493982 0.00011588319861 -0.18096270101 0.011845693067 0.01205170733 
0.0040986278551 0.026521083005 -0.31137385275 0.50502670847 0.052549256455 1.8061780897e-06 2.2747049974e-09 6.0352356774 1.6662826548e-12 
0.19496407866 0.9243798311 0.011737628808 1.1149622569 1.9647499522 -0.15484891355 2.2987182929 0.026180370504 0.00031428458075 
1.0693105913e-07 1.7658788721e-06 1.6218054243e-07 0.24781606384 0.0077080030753 5.8569129275 0.00071844997346 0.0086684228626 3.8547323666e-06 
2.4295657695e-07 0.16414967027 0.029413027281 0.0080199262666 0.99677327832 0.009168837251 7.0078287586e-10 2.8080902131e-08 0.0022603398699 
2.3834900511 0.31070412276 0.0006001934935 1.7332835334e-14 0.025730278867 5.7958535283 0.038766669393 1.6460058991e-07 0.2562560247 
0.51884569251 0.0040834241676 5.368075093 0.41489496342 -0.30923473034 -0.37168791687 6.2415995937e-08 3.7715278527e-09 6.3706871555e-13 
0.09152751483 0.08337492962 0.026809136327 1.6718917956 1.8841448696e-05 -0.50427282157 -0.1183458677 1.8705453514e-06 0.00029356807405 
0.00033786890042 0.01527503509 1.5274293185e-07 -0.37622140644 -0.28673709428 2.6656140089e-05 0.46185163398 1.0965155947e-05 -0.0078540860651 