# vtk DataFile Version 4.2
vtk output
ASCII
DATASET UNSTRUCTURED_GRID
POINTS 4342 double
-0.6 -0.6 0 0.6 -0.6 0 0.6 0.6 0 
-0.6 0.6 0 0 0 0 -0.58 -0.6 0 
-0.56 -0.6 0 -0.54 -0.6 0 -0.52 -0.6 0 
-0.5 -0.6 0 -0.48 -0.6 0 -0.46 -0.6 0 
-0.44 -0.6 0 -0.42 -0.6 0 -0.4 -0.6 0 
-0.38 -0.6 0 -0.36 -0.6 0 -0.34 -0.6 0 
-0.32 -0.6 0 -0.3 -0.6 0 -0.28 -0.6 0 
-0.26 -0.6 0 -0.24 -0.6 0 -0.22 -0.6 0 
-0.2 -0.6 0 -0.18 -0.6 0 -0.16 -0.6 0 
-0.14 -0.6 0 -0.12 -0.6 0 -0.1 -0.6 0 
-0.08 -0.6 0 -0.06 -0.6 0 -0.04 -0.6 0 
-0.02 -0.6 0 -8.881784197e-16 -0.6 0 0.02 -0.6 0 
0.04 -0.6 0 0.06 -0.6 0 0.08 -0.6 0 
0.1 -0.6 0 0.12 -0.6 0 0.14 -0.6 0 
0.16 -0.6 0 0.18 -0.6 0 0.2 -0.6 0 
0.22 -0.6 0 0.24 -0.6 0 0.26 -0.6 0 
0.28 -0.6 0 0.3 -0.6 0 0.32 -0.6 0 
0.34 -0.6 0 0.36 -0.6 0 0.38 -0.6 0 
0.4 -0.6 0 0.42 -0.6 0 0.44 -0.6 0 
0.46 -0.6 0 0.48 -0.6 0 0.5 -0.6 0 
0.52 -0.6 0 0.54 -0.6 0 0.56 -0.6 0 
0.58 -0.6 0 0.6 -0.58 0 0.6 -0.56 0 
0.6 -0.54 0 0.6 -0.52 0 0.6 -0.5 0 
0.6 -0.48 0 0.6 -0.46 0 0.6 -0.44 0 
0.6 -0.42 0 0.6 -0.4 0 0.6 -0.38 0 
0.6 -0.36 0 0.6 -0.34 0 0.6 -0.32 0 
0.6 -0.3 0 0.6 -0.28 0 0.6 -0.26 0 
0.6 -0.24 0 0.6 -0.22 0 0.6 -0.2 0 
0.6 -0.18 0 0.6 -0.16 0 0.6 -0.14 0 
0.6 -0.12 0 0.6 -0.1 0 0.6 -0.08 0 
0.6 -0.06 0 0.6 -0.04 0 0.6 -0.02 0 
0.6 -8.881784197e-16 0 0.6 0.02 0 0.6 0.04 0 
0.6 0.06 0 0.6 0.08 0 0.6 0.1 0 
0.6 0.12 0 0.6 0.14 0 0.6 0.16 0 
0.6 0.18 0 0.6 0.2 0 0.6 0.22 0 
0.6 0.24 0 0.6 0.26 0 0.6 0.28 0 
0.6 0.3 0 0.6 0.32 0 0.6 0.34 0 
0.6 0.36 0 0.6 0.38 0 0.6 0.4 0 
0.6 0.42 0 0.6 0.44 0 0.6 0.46 0 
0.6 0.48 0 0.6 0.5 0 0.6 0.52 0 
0.6 0.54 0 0.6 0.56 0 0.6 0.58 0 
0.58 0.6 0 0.56 0.6 0 0.54 0.6 0 
0.52 0.6 0 0.5 0.6 0 0.48 0.6 0 
0.46 0.6 0 0.44 0.6 0 0.42 0.6 0 
0.4 0.6 0 0.38 0.6 0 0.36 0.6 0 
0.34 0.6 0 0.32 0.6 0 0.3 0.6 0 
0.28 0.6 0 0.26 0.6 0 0.24 0.6 0 
0.22 0.6 0 0.2 0.6 0 0.18 0.6 0 
0.16 0.6 0 0.14 0.6 0 0.12 0.6 0 
0.1 0.6 0 0.08 0.6 0 0.06 0.6 0 
0.04 0.6 0 0.02 0.6 0 8.881784197e-16 0.6 0 
-0.02 0.6 0 -0.04 0.6 0 -0.06 0.6 0 
-0.08 0.6 0 -0.1 0.6 0 -0.12 0.6 0 
-0.14 0.6 0 -0.16 0.6 0 -0.18 0.6 0 
-0.2 0.6 0 -0.22 0.6 0 -0.24 0.6 0 
-0.26 0.6 0 -0.28 0.6 0 -0.3 0.6 0 
-0.32 0.6 0 -0.34 0.6 0 -0.36 0.6 0 
-0.38 0.6 0 -0.4 0.6 0 -0.42 0.6 0 
-0.44 0.6 0 -0.46 0.6 0 -0.48 0.6 0 
-0.5 0.6 0 -0.52 0.6 0 -0.54 0.6 0 
-0.56 0.6 0 -0.58 0.6 0 -0.6 0.58 0 
-0.6 0.56 0 -0.6 0.54 0 -0.6 0.52 0 
-0.6 0.5 0 -0.6 0.48 0 -0.6 0.46 0 
-0.6 0.44 0 -0.6 0.42 0 -0.6 0.4 0 
-0.6 0.38 0 -0.6 0.36 0 -0.6 0.34 0 
-0.6 0.32 0 -0.6 0.3 0 -0.6 0.28 0 
-0.6 0.26 0 -0.6 0.24 0 -0.6 0.22 0 
-0.6 0.2 0 -0.6 0.18 0 -0.6 0.16 0 
-0.6 0.14 0 -0.6 0.12 0 -0.6 0.1 0 
-0.6 0.08 0 -0.6 0.06 0 -0.6 0.04 0 
-0.6 0.02 0 -0.6 8.881784197e-16 0 -0.6 -0.02 0 
-0.6 -0.04 0 -0.6 -0.06 0 -0.6 -0.08 0 
-0.6 -0.1 0 -0.6 -0.12 0 -0.6 -0.14 0 
-0.6 -0.16 0 -0.6 -0.18 0 -0.6 -0.2 0 
-0.6 -0.22 0 -0.6 -0.24 0 -0.6 -0.26 0 
-0.6 -0.28 0 -0.6 -0.3 0 -0.6 -0.32 0 
-0.6 -0.34 0 -0.6 -0.36 0 -0.6 -0.38 0 
-0.6 -0.4 0 -0.6 -0.42 0 -0.6 -0.44 0 
-0.6 -0.46 0 -0.6 -0.48 0 -0.6 -0.5 0 
-0.6 -0.52 0 -0.6 -0.54 0 -0.6 -0.56 0 
-0.6 -0.58 0 0.25 -0.58267949192 0 -0.25 -0.58267949192 0 
-0.24969338163 0.58271630631 0 0.58313820224 0.25089999788 0 -0.58073798855 0.23055415423 0 
0.23 0.58267949192 0 0.5822727489 -0.23023532651 0 -0.58232885758 -0.22986293355 0 
-0.13 -0.58267949192 0 0.58091085312 0.12866705289 0 -0.13050081 0.58443309409 0 
0.13 -0.58267949192 0 0.11 0.58267949192 0 0.58128887437 -0.11185352307 0 
-0.58641004823 0.11046978504 0 -0.58097603768 -0.11235367818 0 -0.01 0.5841811861 0 
0.01 -0.58267949192 0 0.58217507245 0.011050809949 0 -0.58206506685 -0.010494327869 0 
0.58255589861 -0.33012459525 0 -0.58098267687 0.33246863147 0 0.33 0.58267949192 0 
-0.58090018381 -0.32734039494 0 0.35 -0.58267949192 0 0.58210978525 0.34851718814 0 
-0.34984356206 0.58269328777 0 -0.35 -0.58267949192 0 -0.58404031657 -0.41125547479 0 
0.58404031657 -0.41125547479 0 0.41 0.58267949192 0 -0.58127371569 0.40748932397 0 
0.43 -0.58267949192 0 0.58287041801 0.42966930632 0 -0.43030661837 0.58271630631 0 
-0.43 -0.58267949192 0 0.49 0.58267949192 0 0.58119455181 -0.49272606834 0 
-0.58196591894 0.48785347999 0 -0.58132747275 -0.49216380446 0 0.58099079541 0.19297246443 0 
-0.18926154554 0.58413656679 0 0.05 0.58267949192 0 0.19 -0.58267949192 0 
-0.07 -0.58267949192 0 0.58212565717 -0.051217328366 0 -0.07 0.58267949192 0 
0.58245912871 0.070013739955 0 0.07 -0.58267949192 0 0.58168449499 -0.17128271923 0 
-0.58574378526 0.05125913651 0 0.17050081 0.58443309409 0 -0.58168449499 -0.17128271923 0 
-0.58573295936 0.16883725031 0 -0.19 -0.58267949192 0 0.49 -0.58267949192 0 
-0.49050081 0.58443309409 0 0.58415322569 0.48921568047 0 -0.49 -0.58267949192 0 
0.53 -0.58267949192 0 0.58203286059 0.53119351335 0 -0.53 0.58267949192 0 
-0.58222913959 -0.53018403998 0 0.58202539473 0.28969699417 0 -0.29 0.58267949192 0 
-0.58451963751 -0.45057023735 0 -0.58267949192 -0.07 0 -0.29 -0.58267949192 0 
-0.03 -0.58267949192 0 0.39 -0.58267949192 0 0.58307204747 0.39068583015 0 
-0.39 0.58373814012 0 0.29 -0.58267949192 0 0.58208722445 -0.45065236781 0 
0.45042926572 0.58129593389 0 -0.58211115223 0.44955595746 0 -0.58432719917 -0.36932980655 0 
-0.58406793967 -0.26883049013 0 0.5820526686 -0.36901719046 0 0.37 0.58267949192 0 
-0.5823078615 0.36998422007 0 -0.39 -0.58267949192 0 -0.58211498987 0.271305057 0 
-0.53 -0.58267949192 0 0.58222913959 -0.53018403998 0 0.53 0.58373814012 0 
-0.58219774606 0.53090792334 0 0.58030324732 -0.28813008885 0 0.29050081 0.58443309409 0 
-0.58188605505 -0.56816348762 0 0.56922649731 -0.58312607391 0 0.58067979276 0.57009350437 0 
-0.57009384201 0.58146184644 0 0.54987108288 -0.58275392226 0 0.53997851381 -0.5653713889 0 
0.51999641897 -0.56536105136 0 0.52999582213 -0.54804088787 0 0.50999870685 -0.54803922237 0 
0.51999908816 -0.53071849415 0 0.4999996325 -0.53071817987 0 0.50999978678 -0.51339758273 0 
0.48999990321 -0.5133975155 0 0.49999994833 -0.49607698138 0 0.47999997526 -0.49607696583 0 
0.48999998726 -0.47875645082 0 0.46999999375 -0.47875644708 0 0.47999999684 -0.46143593722 0 
0.45999999843 -0.4614359363 0 0.46999999921 -0.44411542777 0 0.44999999961 -0.44411542755 0 
0.4599999998 -0.42679491936 0 0.4399999999 -0.4267949193 0 0.44999999995 -0.4094744112 0 
0.42999999998 -0.40947441118 0 0.43999999999 -0.3921539031 0 0.41999999999 -0.3921539031 0 
0.43 -0.37483339502 0 0.41 -0.37483339502 0 0.42 -0.35751288694 0 
0.4 -0.35751288694 0 0.41 -0.34019237886 0 0.39 -0.34019237886 0 
0.4 -0.32287187079 0 0.38 -0.32287187079 0 0.39 -0.30555136271 0 
0.37 -0.30555136271 0 0.38 -0.28823085464 0 0.36 -0.28823085464 0 
0.37 -0.27091034656 0 0.35 -0.27091034656 0 0.36 -0.25358983849 0 
0.34 -0.25358983849 0 0.35 -0.23626933041 0 0.33 -0.27091034656 0 
0.32 -0.25358983849 0 0.31 -0.27091034656 0 0.3 -0.25358983849 0 
0.29 -0.27091034656 0 0.28 -0.25358983849 0 0.27 -0.27091034656 0 
0.26 -0.25358983849 0 0.25 -0.27091034656 0 0.27 -0.23626933041 0 
0.24 -0.25358983849 0 0.23 -0.27091034656 0 0.22 -0.25358983849 0 
0.21 -0.27091034656 0 0.2 -0.25358983849 0 0.19 -0.27091034656 0 
0.18 -0.25358983849 0 0.17 -0.27091034656 0 0.19 -0.23626933041 0 
0.16 -0.25358983849 0 0.15 -0.27091034656 0 0.14 -0.25358983849 0 
0.13 -0.27091034656 0 0.12 -0.25358983849 0 0.11 -0.27091034656 0 
0.1 -0.25358983849 0 0.09 -0.27091034656 0 0.08 -0.25358983849 0 
0.07 -0.27091034656 0 0.06 -0.25358983849 0 0.05 -0.27091034656 0 
0.04 -0.25358983849 0 0.03 -0.27091034656 0 0.02 -0.25358983849 0 
0.01 -0.27091034656 0 -1.7474921972e-14 -0.25358983849 0 -0.01 -0.27091034656 0 
-0.02 -0.25358983849 0 -0.03 -0.27091034656 0 -0.04 -0.25358983849 0 
-0.05 -0.27091034656 0 -0.06 -0.25358983849 0 -0.07 -0.27091034656 0 
-0.08 -0.25358983849 0 -0.09 -0.27091034656 0 -0.1 -0.25358983849 0 
-0.11 -0.27091034656 0 -0.12 -0.25358983849 0 -0.13 -0.27091034656 0 
-0.14 -0.25358983849 0 -0.15 -0.27091034656 0 -0.16 -0.25358983849 0 
-0.17 -0.27091034656 0 -0.18 -0.25358983849 0 -0.19 -0.27091034656 0 
-0.2 -0.25358983849 0 -0.21 -0.27091034656 0 -0.22 -0.25358983849 0 
-0.21 -0.23626933041 0 -0.23 -0.23626933041 0 -0.22 -0.21894882233 0 
-0.23 -0.27091034656 0 -0.24 -0.21894882233 0 -0.23 -0.20162831426 0 
-0.25 -0.20162831426 0 -0.24 -0.18430780618 0 -0.26 -0.18430780618 0 
-0.25 -0.16698729811 0 -0.27 -0.16698729811 0 -0.26 -0.14966679003 0 
-0.27 -0.20162831426 0 -0.28 -0.14966679003 0 -0.27 -0.13234628196 0 
-0.29 -0.13234628196 0 -0.28 -0.11502577388 0 -0.3 -0.11502577388 0 
-0.29 -0.097705265805 0 0.22 -0.28823085464 0 0.1 -0.28823085464 0 
-0.1 -0.28823085464 0 -0.22 -0.28823085464 0 -0.24 -0.28823085464 0 
0.02 -0.28823085464 0 -0.31 -0.13234628196 0 -0.31 -0.097705265805 0 
-0.3 -0.080384757729 0 -0.28 -0.080384757729 0 -0.29 -0.063064249654 0 
-0.31 -0.063064249654 0 -0.3 -0.045743741578 0 -0.28 -0.045743741578 0 
-0.29 -0.028423233502 0 -0.27 -0.028423233502 0 -0.28 -0.011102725427 0 
-0.3 -0.011102725427 0 -0.29 0.0062177826491 0 -0.27 0.0062177826491 0 
-0.28 0.023538290725 0 -0.26 0.023538290725 0 -0.27 0.0408587988 0 
-0.25 0.0408587988 0 -0.26 0.058179306876 0 -0.24 0.058179306876 0 
-0.25 0.075499814952 0 -0.23 0.075499814952 0 -0.24 0.092820323028 0 
-0.22 0.092820323028 0 -0.23 0.1101408311 0 -0.21 0.1101408311 0 
-0.22 0.12746133918 0 -0.2 0.12746133918 0 -0.21 0.14478184725 0 
-0.19 0.14478184725 0 -0.2 0.16210235533 0 -0.18 0.16210235533 0 
-0.19 0.17942286341 0 -0.17 0.17942286341 0 -0.21 0.17942286341 0 
-0.2 0.19674337148 0 -0.22 0.19674337148 0 -0.21 0.21406387956 0 
-0.23 0.21406387956 0 -0.22 0.23138438763 0 -0.24 0.23138438763 0 
-0.23 0.24870489571 0 -0.21 0.24870489571 0 -0.25 0.24870489571 0 
-0.27 0.075499814952 0 -0.22 0.26602540378 0 -0.2 0.26602540378 0 
-0.21 0.28334591186 0 -0.19 0.28334591186 0 -0.31 0.0062177826491 0 
-0.23 -0.16698729811 0 0.11 -0.23626933041 0 -0.2 0.30066641994 0 
-0.18 0.30066641994 0 -0.23 -0.30555136271 0 -0.25 -0.30555136271 0 
0.39 -0.37483339502 0 -0.09 -0.23626933041 0 -0.19 0.31798692801 0 
[...]
CELL_DATA 8442
FIELD FieldData 1
flux 1 8442 double
6.0756027203e-20 2.2908995914e-14 6.2854185772e-14 -4.4915581046e-13 -5.1708953507e-13 4.6735620795e-20 1.9777889456e-13 1.4361279029e-13 -1.6086542749e-12 
5.7267846977e-13 2.3993343947e-15 2.1351851626e-15 3.1590356838e-13 3.249608408e-13 5.5449561478e-23 1.3126025276e-14 3.7701837828e-17 -5.5484635794e-13 
6.4935614302e-16 2.2943941918e-13 3.305803437e-13 5.5147831916e-23 7.6217711172e-21 2.77680233e-19 4.2719831422e-14 7.323792544e-21 1.7200766036e-18 
1.3195472364e-14 2.5314488941e-15 -1.4498137926e-13 3.4240639481e-15 1.3790467745e-16 -4.9602272883e-13 -7.0154195859e-13 -3.20929074e-13 3.3223854807e-13 
3.5860141616e-13 -9.6039593569e-14 1.6587433655e-13 1.7429148173e-13 1.4441259467e-14 2.0033627122e-23 2.6153605511e-16 -1.666472025e-12 2.6012684015e-14 
8.5966417532e-13 5.4505923267e-13 3.1244610601e-22 3.0757618135e-22 3.8834611762e-15 3.7743633565e-14 1.0427693876e-15 1.8485265813e-21 1.768101284e-21 
7.8984114905e-16 1.7923558704e-16 6.8021493726e-16 3.2425807096e-13 4.5552866262e-13 4.129593261e-13 1.5874752685e-12 6.8169696241e-228 8.9981863778e-14 
1.1246726616e-118 1.3382132189e-18 5.908020932e-15 1.5577624569e-17 2.8590453979e-24 3.3965297423e-139 4.383781049e-13 3.4820854913e-13 1.2535873946e-18 
3.7797906137e-14 1.1838698986e-120 1.5375365709e-14 5.7049912702e-20 -9.9278512088e-13 -1.6688978783e-12 4.0571702701e-13 4.0562245354e-13 1.2546260033e-12 
9.4145668276e-13 2.7995631546e-20 2.9429252383e-11 6.6703492748e-12 -1.1523554403e-11 2.3615892316e-11 1.4718610815e-22 1.4738759138e-22 2.1222505548e-125 
2.1222505548e-125 2.8602545819e-14 -1.0555561571e-12 8.8522276607e-17 8.7975834829e-17 1.9198116314e-13 -1.1122847008e-13 5.1076081539e-14 4.5244162558e-14 
8.7606769474e-16 2.9576304862e-26 1.7904485513e-14 8.6695628143e-14 8.3418887976e-14 7.79755617e-18 1.0576968529e-13 1.4262429176e-15 -3.432038251e-13 
1.2635595792e-21 1.2402622868e-21 1.5820466283e-23 2.7323042443e-16 1.5555337711e-20 1.4333243077e-20 1.4591356906e-19 8.9620206018e-18 -1.0640092335e-12 
1.8074676056e-13 5.2033824087e-13 6.0118444527e-13 -2.1351579895e-12 7.7388297399e-15 -1.413189174e-12 6.1419127951e-13 6.8613074842e-13 7.919944791e-13 
5.1382664019e-14 5.0116074691e-14 8.6547054e-13 -2.0782394943e-13 2.3674666943e-14 1.2912111871e-13 2.0182852435e-24 2.408305904e-15 -3.9634371421e-13 
1.5731762524e-15 2.3832681698e-19 2.875540313e-17 2.8299784948e-17 4.9549832887e-15 -2.080437349e-13 1.2168007639 1.2166968673 -5.0253901167e-13 
2.5429865081e-13 2.414352018e-13 2.2343674071e-23 5.1364522527e-15 1.2045334672e-12 8.9202906188e-15 -1.7650322272e-12 4.7994689899e-16 2.6593169092e-15 
2.1885492568e-21 2.1346883845e-21 2.1368892388e-21 8.3934358258e-21 -1.748243034e-13 1.1664425136e-13 3.8384785759e-16 3.9980600817e-16 -1.3729743567e-13 
6.9728882342e-21 7.1372547292e-21 7.6456216975e-15 2.657937648e-17 5.1702446066e-20 1.1870375409e-14 1.2187295324e-12 -6.4858720006e-13 3.234219078e-19 
7.7306642321e-14 -8.9939223838e-13 1.2148898571 1.2145845332 5.5176710019e-20 1.2148046362 1.2147676436 1.1772488693e-13 5.4727073033e-20 
3.6102862361e-16 6.5070442381e-14 6.4829018309e-14 8.1916678608e-25 -2.3028041954e-13 1.0109989853e-13 3.0026536376e-25 2.2592280281e-15 7.2945515236e-18 
2.6361766123e-19 3.2130552246e-23 3.2033599639e-23 7.6435606107e-16 2.4598837122e-19 1.7860210757e-18 1.5745637629e-15 2.0616201507e-13 2.186015314e-12 
5.5055030784e-18 5.1391830774e-12 1.0871949459e-12 5.5983480503e-12 -2.6530842153e-10 5.2534649604e-10 6.4953258828e-11 5.5998882558e-10 -5.6718240701e-12 
-4.7570054676e-11 -6.8720478682e-11 -5.62732076e-12 -4.7870770956e-12 -3.7762907782e-11 -3.2574063684e-12 -5.9610508136e-12 -7.5238613034e-12 1.1492934752e-12 
-6.7383020844e-11 -6.3881480543e-11 1.6468883165e-16 -9.5685350602e-11 5.048470999e-20 1.7733919593e-18 2.0148582561e-18 4.9047698502e-17 1.6653732964e-18 
3.8186079872e-12 1.4048936277e-12 0.070353352511 -0.0044279430452 -0.010497775848 0.058221182088 -0.020349484746 -1.6114048336e-08 -0.011822337121 
4.3077608445e-13 7.8503331048e-11 1.0620608704e-07 1.9992804891e-06 5.8579975281e-06 -0.0050955131853 0.008016348692 -0.008524315582 0.010122709356 
-0.00066030888083 -0.038713799915 -0.0092214265589 2.398778097e-08 -0.005806094894 3.7343839511e-12 -0.0094364970898 2.3293244665e-10 -0.00045516340571 
5.5148829921e-08 2.426732645e-12 -3.0849513974e-09 8.5557616373e-13 -3.1408557448e-07 1.1659614224e-10 1.2135063679e-11 1.2094623903e-13 -3.3209546421e-08 
1.2923792266e-17 -0.0063726608983 -0.010140051169 0.13603443653 5.2212504304e-09 -4.5792939983e-10 -0.0068031156551 1.2908726997e-12 -0.0070933743081 
4.9727457481e-07 7.8107222143e-10 5.260914473e-07 -0.010646710007 8.7630459317e-07 -0.00037592846735 -0.010952953145 1.6741878672e-11 4.7222904515e-21 
1.1757174906e-21 -0.00011804368541 1.0067542071e-09 2.2144485718e-09 8.820155002e-07 -0.0072395285987 0.00016037156623 4.0645804425e-13 3.9271852377e-05 
0.0019178195209 1.7324743047e-07 -4.7977161343e-08 -0.00019159825652 0.091113990246 9.0380326291e-09 0.17024583932 -3.5762122806e-08 -0.01105543961 
-0.015537094427 -0.95082904009 9.7167602945 3.8891540506e-20 -0.00022503761562 1.2849655722e-05 -0.18641064409 0.25872701397 -5.4636783368e-06 
0.0044221597893 1.0319681532e-07 -5.767526233e-09 1.9582675899e-12 1.4159760133 2.5830585533e-07 -7.8563183773e-08 7.4415208031e-11 -2.1658253406 
-1.8177277008e-07 -3.5702469142e-05 0.00013613581523 -9.9644748121e-05 1.904780493e-07 1.320375074e-06 1.5899411768e-09 -0.025386317732 0.41117805175 
6.6264229725e-07 2.3842857346e-05 -0.0021200979613 -0.01254504744 -2.0560338611 -4.9773147519e-11 -2.2582974637 -0.014363651175 -9.18066102e-11 
-1.5182575965e-06 7.7059195523e-05 5.54605543e-08 -2.2567366235 -2.802781953e-06 -2.0593054604 14.564945783 4.543722737e-09 -0.95870429721 
5.6391672042e-11 5.948375189 -0.013584957823 -1.8403278605 5.5537052043 -0.001989922683 -0.0077311292974 -0.00040310256453 9.0877716e-22 
-1.6893948109 -1.4163899431e-05 -6.7514893914e-12 2.5062473948e-11 1.0723045825e-05 -0.0008604832567 -0.77559973329 2.1303268381 2.8493150907e-10 
-3.5037887822e-07 2.1910903343 -4.6050260747e-05 2.8547910064e-10 -0.010140125197 -0.035272901346 9.0209310365 -0.028465545988 4.0121996945e-08 
-0.042155722898 5.4908459681e-10 1.6907302718e-12 2.4625735923 -0.0072915027636 9.4662621205 -0.027152119811 0.40984961016 -0.00053220373526 
3.510542267e-10 2.6619102459 -1.6461764571e-11 9.9685238787e-14 -0.041232168195 0.00021450977563 -2.5851195012e-11 -0.0033072887965 7.8510214358e-05 
-0.00031948822173 -6.1418064942e-07 2.412755418e-12 -0.52228847082 -0.40514175202 -0.00011680033609 4.6558588015e-07 -7.9351525126e-05 4.2684200803e-15 
1.2559432771e-07 -2.9492715486e-06 3.0785264418e-07 6.9833043606 -0.0068030747911 1.8444506745 1.7008914635 5.137961672e-13 -8.2701699119e-05 
8.0790194581 4.9857009958e-13 -8.1268429022e-05 1.1072634064e-09 0.00041644564758 0.00042334014121 -2.9056754594 -4.259248016e-09 0.00046726548329 
-4.8619087854e-05 -2.9397342234 -0.11585213357 1.5899969582e-09 3.4684823773e-06 -0.0046354021774 -2.0391070501 13.023173293 4.926329043e-05 
5.6482635214e-12 0.0014459204886 0.0072608591283 -0.0020420396091 9.9155144737 0.69645800311 3.8061049266e-05 1.5973059431e-06 7.3922838278e-08 
8.9190142663e-06 5.3577930732e-13 -9.814439198e-05 2.2695529732e-07 0.87291839931 9.6900798593e-05 5.4613072124e-09 2.2964832933e-12 -2.1208967044e-11 
1.1369291563e-10 -2.1867987935 -1.485568772 -1.4232178755 0.00040596387633 7.6151463286e-15 0.057924657473 0.0010488650915 -0.00066304282118 
-2.5179398037e-10 2.6684602225e-12 -0.00017668361771 -0.00048826477015 1.0071133759e-22 1.5391319696 -0.001737761101 -0.0005926807832 4.3736378165e-09 
-3.915920813e-10 5.3277291628 -0.00053104024766 0.00024965252404 -1.6223362106 -1.1384978649 6.7398679249 3.0539352787e-09 6.5613302538 
-0.86411939398 -0.0072395221993 -8.9293681114e-05 8.7618856162e-09 -0.025050646659 1.9640745259e-06 0.00018414736172 -0.0094682028098 -1.9689524878 
4.96221908 -0.0005983548719 -2.8498575933 6.5751088886e-11 2.0432742626e-08 -1.490810637e-05 -0.001320512984 -1.9794025549 6.0672923881e-09 
-2.8163255014 5.3928177003 -7.0386607842e-08 -0.00037872573891 2.3096644287 11.454351882 2.8985888315e-14 2.5592505475 2.6031004731e-12 
10.2082532 7.4642638582e-15 1.7101985231 -0.2365514073 -2.3060322858 2.7919506827e-09 -0.0052804883556 6.2667345331 -0.11343542863 
5.8919070637e-21 0.0046271728321 -2.7190559154 -1.537540228e-10 -0.97827887944 -1.0513391093 -0.0020340017464 -4.3834392473e-07 3.8154861368e-06 
5.8216716076e-11 2.528383763 0.69484102144 -0.0035394772446 -0.0031541838857 -0.4083447571 10.115367435 1.927447249e-10 1.1771681074e-06 
-1.4011146846e-07 4.6668766634 1.6243899444e-07 0.00026753259538 -0.28610745752 12.920991754 3.4571370821e-05 1.1596115661e-10 -0.0012677310095 
7.5940564389e-10 15.555886091 1.4729228346e-07 -0.00031861305186 8.2136237737 0.028607038208 -9.67741853e-05 -0.015538040394 -0.020351165946 
-0.00023681838297 0.0023295728657 0.8726707094 2.2230666878 -0.00024913145927 7.3950548662e-07 -0.09170498694 2.4807667057e-15 9.6824615012e-05 
-8.9604290853e-10 0.0078024672537 -2.5874768742e-07 -0.0063725916269 -0.19048756508 3.7609405157e-07 9.5575595325e-10 1.5519480388e-09 7.7945735548 
0.97605638115 9.8337177311 -2.7323575246e-09 -0.00029351929178 -0.33323112561 4.9330816955e-13 3.4370792702 -6.4238152257e-11 -0.0033845454046 
1.3226028644e-14 -0.00027056390301 0.0044182922312 1.5377165313 -0.2547140656 4.0412408159 -2.2582779479 2.4978291681e-14 -0.011822827287 
4.239961285e-10 -0.0056338928007 -2.0631629583 1.6244450292e-13 6.7759102417 2.7666041334e-06 6.201768182e-23 -0.11590129623 -9.9581698757e-05 
4.7856457018e-06 -0.021716137641 6.7733217777 8.9837694515 1.0200466957 -0.0062914954512 1.2752142863e-11 2.60388932 -0.10462120123 
1.2938744279e-05 12.946160078 0.0018307458789 -0.14685711979 -1.3010667512e-05 11.052207403 1.4404826827e-15 3.3280587621e-08 -2.6569363285e-12 
-0.00024858645815 4.3388554765 -2.4288444316e-05 1.0379416409e-18 2.1038868637e-15 5.7313258161 4.9681287763e-11 3.7977750657 0.017177523198 
1.6152041017e-05 -1.0803782119e-10 -0.59155046241 3.1788695895e-08 3.3333258384e-07 0.0034451111261 -0.00065893639952 -0.00011823913397 -0.00022503151965 
-0.00085925433954 0.31717855322 -0.0085243561008 -0.0058059857632 8.1206335704e-14 1.308369447e-13 9.7213377244 1.7731426751 -0.017734241468 
-0.0025417410891 2.2339671055 -1.1587468713e-09 0.024961124521 7.5826534073e-09 8.3700516698 1.3069112784e-15 -1.5107619874 1.5242026197e-13 
-1.3982189238 -2.179445894 -0.27614206084 8.6118382044 1.498750179e-09 1.4203484737e-06 -0.028455219756 -0.76610239909 -7.2145387538e-06 
0.00011933243362 -1.811674693e-13 2.9045467655e-07 -0.012757737872 -2.1788511975 0.21701522906 -7.9343265132e-05 2.77945902 1.5440429972e-10 
4.1846537268e-10 0.015478377899 1.9050940213e-10 -1.2997480794 0.057751106666 0.064745536821 0.00024643380212 4.1058753659e-13 -0.00066593115236 
2.2765439954e-07 -0.0030160847376 0.46861400679 5.6302556307e-07 0.029655848279 0.044860816069 -1.0633483635e-09 2.5835554745e-09 4.3360295223 
2.8883710952e-08 -0.00059002236387 -5.516073211e-05 3.9390642313 6.835668792e-05 1.0654433613e-05 2.2413826302e-17 8.3886643347e-05 5.4678303685e-09 
0.15712478673 -0.18912292345 -3.6289176885e-07 -4.5460156144e-10 2.4392460367e-11 -0.00059875949631 2.6037972436e-12 -0.00014544680056 0.11225525774 
9.7813991293e-08 -2.3100423727 5.135402926e-13 -2.351649727e-07 -0.1128989046 -0.25248429637 -0.061000993386 1.4667628157e-09 -2.1532266754e-10 
-0.002631668294 -5.0398269356e-10 4.7395696725 0.0072510872221 1.4050063117 -3.055575696e-11 4.1779351436 -0.0034871612454 -0.0010261572347 
-0.0029279168849 -0.0013071787247 7.7904978384e-11 -0.001038378685 0.44932621354 0.032900567471 -0.25546548314 1.5484487736e-14 -0.10989950443 
-0.00039986920361 6.4313647731 -9.9864060763e-13 -0.00045436042103 2.2558149512e-12 9.209093681e-12 0.00011546813584 -1.6495433937 -2.1776467895 
-0.0051872523952 0.9416077127 9.5318959036e-09 5.1280851627e-11 1.8721282182e-21 9.1143925975e-221 -0.0050631677011 5.4208851876e-12 1.4602401007e-08 
0.086621606534 10.877619295 4.7397427412 -0.02728950712 -0.0026674060169 8.792292173 3.9213923492e-06 0.60227856611 -0.78419765337 
9.762407131e-09 6.8413664464e-06 9.0933349963 -0.0013681002828 0.1549615764 -0.010646769831 -2.3347147641 8.5971941861e-10 0.06183761414 
15.290518284 2.8038446661e-12 12.804322042 3.7862368314e-23 -0.77659718491 -2.0122877122e-07 5.989036772e-10 0.11205538803 5.3411059923e-13 
2.5868618798 3.7552853672 -0.075703632749 -4.6114443696e-08 -2.7917639374 -0.030208049043 -0.00024854461894 2.2431056772e-07 5.4920597134e-05 
5.3953144494 3.2426056961e-05 -2.9409207526 8.0283010655e-10 2.7907612401 -6.1902767003e-07 1.2089278061 -5.0959538357e-09 7.9217400038e-07 
0.2991257684 1.1834240988e-05 1.4175091879e-08 1.1629798331e-11 0.022775817566 -0.16073128281 0.007227207119 -0.068295791812 -0.072626705858 
3.7344958225e-12 5.9490303248 1.9217172537e-10 -1.2195163531e-05 -0.0016454654399 -0.045365792315 -0.00056749190298 12.888390817 -1.8174886948e-07 
2.4666600033e-13 6.1030627611e-14 4.1511605644 -1.8860442912e-05 0.0044499215142 9.2048026792e-14 -2.4391803487e-06 1.2945742858e-06 -0.0040443122706 
14.285760736 -2.5897220766e-07 4.9529988643e-17 0.0010097652776 -7.2190191184e-06 -0.043627543731 2.2439722045e-07 -0.012767460772 -9.3046330385e-11 
5.4864111377e-12 1.2688315123e-15 8.4874104796e-15 -2.9258526492 2.0174164413e-11 2.901512828e-09 0.00017251074502 9.5648101962 3.8431331958 
1.4168950938e-08 -0.0012678336258 0.2420923379 -0.0052657648646 3.5319997257 2.46559451e-16 -0.13258212146 8.0216957352e-05 6.2741024296e-16 
2.235370572e-09 6.3905399385 -0.00056819970583 -0.046934608691 -0.077862693777 6.2009212769e-22 2.1219773407 -3.6268666145e-07 -4.5465488333e-10 
0.059298352687 3.8134922161e-09 0.99118277756 0.026571688736 0.0256480343 -2.1183277513e-08 -5.6532346057e-10 2.3174789223e-09 -9.08884006e-10 
3.0753125305e-06 9.5303190087e-09 1.3244182217e-06 0.048378527027 4.8437322216e-09 0.007408006203 1.633921773e-14 3.5275439526e-09 3.6246750203e-09 
0.0070297808424 2.1795204205 1.268581595e-15 8.6591622513e-07 -7.9713820633e-11 0.10834458204 -2.134823531e-05 -0.2610854217 0.00070292916896 
-0.04071501714 0.0086444282284 -1.1596662195e-09 0.8946696535 1.6149954545 -0.00082262681914 -0.11210875752 -0.0071902294569 1.4496272648e-07 
6.0202938374 1.2135531649e-11 8.02968041 -4.4930650589e-09 0.6293832102 2.6069715477 0.18100354122 -9.2696431451e-05 1.5419074659e-13 
8.9820751405e-10 -0.00049399784516 0.0019705719985 -2.8429158386 1.3506812358e-11 5.7494619178e-13 -0.24605061015 1.5231768946e-13 -0.00018438437311 
1.1879344581e-11 9.8656359714e-08 8.9687421581e-22 0.50662475583 -1.5060342612e-09 1.8605895216e-19 2.5405434407e-09 -1.7543514027 -1.1806618899e-09 
-0.0071018903689 6.9506120654 0.011657578538 2.7646618953e-14 1.3997158691e-18 2.7631290125e-14 3.2606453348 1.279319846e-14 -0.0094365669053 
-1.1840394248 5.0564980837e-05 0.73203506389 0.0010632208552 -1.9478128485 -0.41733912193 0.29173760493 1.4611922464 5.5149058916e-08 
-0.026658711748 4.8708900467 0.28677178063 4.3607372579e-13 -1.0034319991e-08 1.865365244 1.029150793e-14 0.0024742325071 1.7187828955e-05 
2.480799407e-15 1.5854978479e-07 3.0079234942e-13 1.6035857342e-11 -3.5631532658e-05 0.06490301315 -0.0013672598612 0.0073501379639 4.2062968778e-06 
2.5073565248e-10 2.4404913012e-08 1.3352921441e-11 9.3139498254e-08 1.6042982611e-06 -1.3853536218e-08 -1.7823225286e-11 3.7473832316e-12 -0.59630636141 
-9.819707416e-05 2.2734001248e-06 1.0101325503e-11 4.7319071988e-07 3.9779598834e-12 0.50168379695 2.8927229178e-15 0.024991999373 8.662777178e-07 
-4.9553349382e-07 6.3710000063 3.1698277846e-05 -0.042144806404 -5.1337978712e-09 5.6312965309e-13 -0.52378933051 1.2392112021e-08 -0.090804111401 
-0.0030263013698 9.6216546845e-13 6.0978566655 -0.031370986366 -2.2089263462 0.013419572091 0.92661377644 12.472541255 -2.8403568797 
-0.14026302624 -0.11351196667 5.777096533 0.33599039284 -0.078629617679 2.0272864414e-10 -2.1780616999 -1.6990952016e-09 1.1049282295e-10 
0.0038636369479 1.0287317959e-14 0.0047141868893 -0.0010223108342 -1.0991416213e-08 1.5860000033e-07 0.011976755689 2.5860902595 9.2048417308e-13 
9.8435930577e-11 5.1936107632 0.068896011461 -8.6952981565e-05 6.3680978979e-09 9.7865226434e-10 -6.4690148282e-05 2.2818222767e-08 -2.2089634665 
6.2743301507e-16 2.3111887083 0.0010364068825 -0.50171214289 -2.0360486871e-10 7.6138571628e-15 0.38164399145 0.057941523948 0.017905355952 
-3.0855083002e-09 4.6916911192e-09 0.0013236596258 -4.0641522248e-10 6.484939958 -0.025368090312 -2.2073772017 -3.3031924978e-10 -0.04128197782 
2.2454370733 0.0043718056817 -2.2044659414 2.8091880996 7.1724151918e-13 -1.6030666136 2.781009662 0.00065930884307 1.074055357e-06 
-7.9491745541e-11 0.015048161677 0.005174291099 0.070956876638 -0.95082933931 9.5697199202e-17 14.286688805 0.89119908011 1.4762280468e-05 
4.7301398705e-07 2.624239011 -1.1745296177e-05 1.7702546852 4.6508395046e-08 -1.5234012849e-08 5.9215089329e-11 -0.01049333102 2.2460913491e-14 
4.3089486769e-10 6.0266909932e-05 1.0343622566e-12 1.5248817804e-07 -9.6785815019e-06 -3.6351814346e-09 6.9040304042e-14 3.7069750998e-10 3.8788597481e-08 
2.7731605863e-12 3.2739452981e-14 0.010780996195 -1.9532332316e-08 -0.074197272741 -3.4025596304e-05 0.084872848556 -0.0011558913581 0.00027270404467 
0.0024864816425 0.016355690797 1.3448933002e-08 1.9790506665 1.382195813 5.4788942774e-14 1.1521225098e-07 -0.52597598397 0.24268661043 
5.5399904789 5.9276752086e-206 2.1862474456e-206 1.2997940012e-09 3.1306763767e-05 -2.1761883477 3.263034729 3.9000187753 0.69397009329 
-0.074144364861 -0.00010519778051 6.7801109104 0.0073488612358 4.4798283604 0.0030655568074 -1.0269344775 0.97290361394 0.87077681787 
-1.2902056521 -1.1523915611e-06 2.682714202 5.6340505097e-11 0.0019253304375 11.08857104 1.6525837643e-08 0.45830618766 1.5016281999e-07 
10.734172942 0.091137439161 5.9896304293e-06 -1.093875863 -0.013371442897 4.6945229517e-09 0.00088953238145 5.1930620499 -2.8647257035e-11 
0.10051466687 0.00014764611206 4.6409334676e-11 -0.019333243173 7.4874423151e-221 -0.047471276048 -1.4775017129e-06 -2.0114554052e-07 -0.087223505051 
0.00019211688059 -1.6264017886e-09 -1.8619621711 1.5871278221e-07 0.0017124725073 0.049882154026 2.4874070223e-09 1.0153444861e-05 2.7136426127e-10 
6.5373493872e-11 3.3983742793e-06 2.5758557093e-11 2.5314552953e-13 -2.394257453 -0.03869221067 4.4784491278e-12 6.9801033113 0.0048066800635 
0.0076677410756 4.5168967926 0.2518877437 -0.027988595547 1.2596718215e-17 2.7081276187e-14 7.5750146978e-06 5.5450909374e-14 -0.00010045309382 
0.00026560370851 9.792249759e-08 1.9628454446e-05 0.22972021113 4.1711671724e-06 3.232846954e-05 -1.9767580574 12.169882889 5.1442745125e-10 
-0.42921686793 -0.39636248333 2.8853755753e-12 3.547938441 2.4966859114 4.121169948e-15 3.6428729714 2.5076571639e-10 -2.309855761 
-0.0060379967697 0.045437742248 9.6159416666e-11 -0.40074668879 5.0792155793e-09 4.4916910845e-06 -2.8499969542 2.163565375e-20 -9.676611193e-05 
0.010692655056 -3.1296186292e-08 0.0036466239684 3.8810998649e-09 -0.76942974037 3.2128958883 1.5552017676 -0.00011806793955 -1.1992512709 
2.5114019149e-05 8.2846159386e-08 0.0037637266722 -3.6878390466e-08 -0.00013347467958 0.021139397556 -2.4405573161e-06 -0.52378242209 0.046689705988 
0.14142895863 0.033387059061 -0.0010882457494 3.0835557072e-11 4.6607385477 1.8520879292e-09 -0.556297612 8.2834119108e-07 2.0040585757e-07 
4.578472874e-08 6.0306179882 -0.45446756728 0.0014457047247 3.1432239123e-05 -1.2445846243e-10 8.4027901908e-15 0.057822671315 7.6241594539e-18 
-0.0017839282188 0.1220902202 1.5684558823e-06 0.053138798742 0.045588896368 -0.86553819248 0.0029161192199 7.9989290162 3.9423215096e-08 