# vtk DataFile Version 4.2
vtk output
ASCII
DATASET UNSTRUCTURED_GRID
POINTS 4342 double
-0.6 -0.6 0 0.6 -0.6 0 0.6 0.6 0 
-0.6 0.6 0 0 0 0 -0.58 -0.6 0 
-0.56 -0.6 0 -0.54 -0.6 0 -0.52 -0.6 0 
-0.5 -0.6 0 -0.48 -0.6 0 -0.46 -0.6 0 
-0.44 -0.6 0 -0.42 -0.6 0 -0.4 -0.6 0 
-0.38 -0.6 0 -0.36 -0.6 0 -0.34 -0.6 0 
-0.32 -0.6 0 -0.3 -0.6 0 -0.28 -0.6 0 
-0.26 -0.6 0 -0.24 -0.6 0 -0.22 -0.6 0 
-0.2 -0.6 0 -0.18 -0.6 0 -0.16 -0.6 0 
-0.14 -0.6 0 -0.12 -0.6 0 -0.1 -0.6 0 
-0.08 -0.6 0 -0.06 -0.6 0 -0.04 -0.6 0 
-0.02 -0.6 0 -8.881784197e-16 -0.6 0 0.02 -0.6 0 
0.04 -0.6 0 0.06 -0.6 0 0.08 -0.6 0 
0.1 -0.6 0 0.12 -0.6 0 0.14 -0.6 0 
0.16 -0.6 0 0.18 -0.6 0 0.2 -0.6 0 
0.22 -0.6 0 0.24 -0.6 0 0.26 -0.6 0 
0.28 -0.6 0 0.3 -0.6 0 0.32 -0.6 0 
0.34 -0.6 0 0.36 -0.6 0 0.38 -0.6 0 
0.4 -0.6 0 0.42 -0.6 0 0.44 -0.6 0 
0.46 -0.6 0 0.48 -0.6 0 0.5 -0.6 0 
0.52 -0.6 0 0.54 -0.6 0 0.56 -0.6 0 
0.58 -0.6 0 0.6 -0.58 0 0.6 -0.56 0 
0.6 -0.54 0 0.6 -0.52 0 0.6 -0.5 0 
0.6 -0.48 0 0.6 -0.46 0 0.6 -0.44 0 
0.6 -0.42 0 0.6 -0.4 0 0.6 -0.38 0 
0.6 -0.36 0 0.6 -0.34 0 0.6 -0.32 0 
0.6 -0.3 0 0.6 -0.28 0 0.6 -0.26 0 
0.6 -0.24 0 0.6 -0.22 0 0.6 -0.2 0 
0.6 -0.18 0 0.6 -0.16 0 0.6 -0.14 0 
0.6 -0.12 0 0.6 -0.1 0 0.6 -0.08 0 
0.6 -0.06 0 0.6 -0.04 0 0.6 -0.02 0 
0.6 -8.881784197e-16 0 0.6 0.02 0 0.6 0.04 0 
0.6 0.06 0 0.6 0.08 0 0.6 0.1 0 
0.6 0.12 0 0.6 0.14 0 0.6 0.16 0 
0.6 0.18 0 0.6 0.2 0 0.6 0.22 0 
0.6 0.24 0 0.6 0.26 0 0.6 0.28 0 
0.6 0.3 0 0.6 0.32 0 0.6 0.34 0 
0.6 0.36 0 0.6 0.38 0 0.6 0.4 0 
0.6 0.42 0 0.6 0.44 0 0.6 0.46 0 
0.6 0.48 0 0.6 0.5 0 0.6 0.52 0 
0.6 0.54 0 0.6 0.56 0 0.6 0.58 0 
0.58 0.6 0 0.56 0.6 0 0.54 0.6 0 
0.52 0.6 0 0.5 0.6 0 0.48 0.6 0 
0.46 0.6 0 0.44 0.6 0 0.42 0.6 0 
0.4 0.6 0 0.38 0.6 0 0.36 0.6 0 
0.34 0.6 0 0.32 0.6 0 0.3 0.6 0 
0.28 0.6 0 0.26 0.6 0 0.24 0.6 0 
0.22 0.6 0 0.2 0.6 0 0.18 0.6 0 
0.16 0.6 0 0.14 0.6 0 0.12 0.6 0 
0.1 0.6 0 0.08 0.6 0 0.06 0.6 0 
0.04 0.6 0 0.02 0.6 0 8.881784197e-16 0.6 0 
-0.02 0.6 0 -0.04 0.6 0 -0.06 0.6 0 
-0.08 0.6 0 -0.1 0.6 0 -0.12 0.6 0 
-0.14 0.6 0 -0.16 0.6 0 -0.18 0.6 0 
-0.2 0.6 0 -0.22 0.6 0 -0.24 0.6 0 
-0.26 0.6 0 -0.28 0.6 0 -0.3 0.6 0 
-0.32 0.6 0 -0.34 0.6 0 -0.36 0.6 0 
-0.38 0.6 0 -0.4 0.6 0 -0.42 0.6 0 
-0.44 0.6 0 -0.46 0.6 0 -0.48 0.6 0 
-0.5 0.6 0 -0.52 0.6 0 -0.54 0.6 0 
-0.56 0.6 0 -0.58 0.6 0 -0.6 0.58 0 
-0.6 0.56 0 -0.6 0.54 0 -0.6 0.52 0 
-0.6 0.5 0 -0.6 0.48 0 -0.6 0.46 0 
-0.6 0.44 0 -0.6 0.42 0 -0.6 0.4 0 
-0.6 0.38 0 -0.6 0.36 0 -0.6 0.34 0 
-0.6 0.32 0 -0.6 0.3 0 -0.6 0.28 0 
-0.6 0.26 0 -0.6 0.24 0 -0.6 0.22 0 
-0.6 0.2 0 -0.6 0.18 0 -0.6 0.16 0 
-0.6 0.14 0 -0.6 0.12 0 -0.6 0.1 0 
-0.6 0.08 0 -0.6 0.06 0 -0.6 0.04 0 
-0.6 0.02 0 -0.6 8.881784197e-16 0 -0.6 -0.02 0 
-0.6 -0.04 0 -0.6 -0.06 0 -0.6 -0.08 0 
-0.6 -0.1 0 -0.6 -0.12 0 -0.6 -0.14 0 
-0.6 -0.16 0 -0.6 -0.18 0 -0.6 -0.2 0 
-0.6 -0.22 0 -0.6 -0.24 0 -0.6 -0.26 0 
-0.6 -0.28 0 -0.6 -0.3 0 -0.6 -0.32 0 
-0.6 -0.34 0 -0.6 -0.36 0 -0.6 -0.38 0 
-0.6 -0.4 0 -0.6 -0.42 0 -0.6 -0.44 0 
-0.6 -0.46 0 -0.6 -0.48 0 -0.6 -0.5 0 
-0.6 -0.52 0 -0.6 -0.54 0 -0.6 -0.56 0 
-0.6 -0.58 0 0.25 -0.58267949192 0 -0.25 -0.58267949192 0 
-0.24969338163 0.58271630631 0 0.58313820224 0.25089999788 0 -0.58073798855 0.23055415423 0 
0.23 0.58267949192 0 0.5822727489 -0.23023532651 0 -0.58232885758 -0.22986293355 0 
-0.13 -0.58267949192 0 0.58091085312 0.12866705289 0 -0.13050081 0.58443309409 0 
0.13 -0.58267949192 0 0.11 0.58267949192 0 0.58128887437 -0.11185352307 0 
-0.58641004823 0.11046978504 0 -0.58097603768 -0.11235367818 0 -0.01 0.5841811861 0 
0.01 -0.58267949192 0 0.58217507245 0.011050809949 0 -0.58206506685 -0.010494327869 0 
0.58255589861 -0.33012459525 0 -0.58098267687 0.33246863147 0 0.33 0.58267949192 0 
-0.58090018381 -0.32734039494 0 0.35 -0.58267949192 0 0.58210978525 0.34851718814 0 
-0.34984356206 0.58269328777 0 -0.35 -0.58267949192 0 -0.58404031657 -0.41125547479 0 
0.58404031657 -0.41125547479 0 0.41 0.58267949192 0 -0.58127371569 0.40748932397 0 
0.43 -0.58267949192 0 0.58287041801 0.42966930632 0 -0.43030661837 0.58271630631 0 
-0.43 -0.58267949192 0 0.49 0.58267949192 0 0.58119455181 -0.49272606834 0 
-0.58196591894 0.48785347999 0 -0.58132747275 -0.49216380446 0 0.58099079541 0.19297246443 0 
-0.18926154554 0.58413656679 0 0.05 0.58267949192 0 0.19 -0.58267949192 0 
-0.07 -0.58267949192 0 0.58212565717 -0.051217328366 0 -0.07 0.58267949192 0 
0.58245912871 0.070013739955 0 0.07 -0.58267949192 0 0.58168449499 -0.17128271923 0 
-0.58574378526 0.05125913651 0 0.17050081 0.58443309409 0 -0.58168449499 -0.17128271923 0 
-0.58573295936 0.16883725031 0 -0.19 -0.58267949192 0 0.49 -0.58267949192 0 
-0.49050081 0.58443309409 0 0.58415322569 0.48921568047 0 -0.49 -0.58267949192 0 
0.53 -0.58267949192 0 0.58203286059 0.53119351335 0 -0.53 0.58267949192 0 
-0.58222913959 -0.53018403998 0 0.58202539473 0.28969699417 0 -0.29 0.58267949192 0 
-0.58451963751 -0.45057023735 0 -0.58267949192 -0.07 0 -0.29 -0.58267949192 0 
-0.03 -0.58267949192 0 0.39 -0.58267949192 0 0.58307204747 0.39068583015 0 
-0.39 0.58373814012 0 0.29 -0.58267949192 0 0.58208722445 -0.45065236781 0 
0.45042926572 0.58129593389 0 -0.58211115223 0.44955595746 0 -0.58432719917 -0.36932980655 0 
-0.58406793967 -0.26883049013 0 0.5820526686 -0.36901719046 0 0.37 0.58267949192 0 
-0.5823078615 0.36998422007 0 -0.39 -0.58267949192 0 -0.58211498987 0.271305057 0 
-0.53 -0.58267949192 0 0.58222913959 -0.53018403998 0 0.53 0.58373814012 0 
-0.58219774606 0.53090792334 0 0.58030324732 -0.28813008885 0 0.29050081 0.58443309409 0 
-0.58188605505 -0.56816348762 0 0.56922649731 -0.58312607391 0 0.58067979276 0.57009350437 0 
-0.57009384201 0.58146184644 0 0.54987108288 -0.58275392226 0 0.53997851381 -0.5653713889 0 
0.51999641897 -0.56536105136 0 0.52999582213 -0.54804088787 0 0.50999870685 -0.54803922237 0 
0.51999908816 -0.53071849415 0 0.4999996325 -0.53071817987 0 0.50999978678 -0.51339758273 0 
0.48999990321 -0.5133975155 0 0.49999994833 -0.49607698138 0 0.47999997526 -0.49607696583 0 
0.48999998726 -0.47875645082 0 0.46999999375 -0.47875644708 0 0.47999999684 -0.46143593722 0 
0.45999999843 -0.4614359363 0 0.46999999921 -0.44411542777 0 0.44999999961 -0.44411542755 0 
0.4599999998 -0.42679491936 0 0.4399999999 -0.4267949193 0 0.44999999995 -0.4094744112 0 
0.42999999998 -0.40947441118 0 0.43999999999 -0.3921539031 0 0.41999999999 -0.3921539031 0 
0.43 -0.37483339502 0 0.41 -0.37483339502 0 0.42 -0.35751288694 0 
0.4 -0.35751288694 0 0.41 -0.34019237886 0 0.39 -0.34019237886 0 
0.4 -0.32287187079 0 0.38 -0.32287187079 0 0.39 -0.30555136271 0 
0.37 -0.30555136271 0 0.38 -0.28823085464 0 0.36 -0.28823085464 0 
0.37 -0.27091034656 0 0.35 -0.27091034656 0 0.36 -0.25358983849 0 
0.34 -0.25358983849 0 0.35 -0.23626933041 0 0.33 -0.27091034656 0 
0.32 -0.25358983849 0 0.31 -0.27091034656 0 0.3 -0.25358983849 0 
0.29 -0.27091034656 0 0.28 -0.25358983849 0 0.27 -0.27091034656 0 
0.26 -0.25358983849 0 0.25 -0.27091034656 0 0.27 -0.23626933041 0 
0.24 -0.25358983849 0 0.23 -0.27091034656 0 0.22 -0.25358983849 0 
0.21 -0.27091034656 0 0.2 -0.25358983849 0 0.19 -0.27091034656 0 
0.18 -0.25358983849 0 0.17 -0.27091034656 0 0.19 -0.23626933041 0 
0.16 -0.25358983849 0 0.15 -0.27091034656 0 0.14 -0.25358983849 0 
0.13 -0.27091034656 0 0.12 -0.25358983849 0 0.11 -0.27091034656 0 
0.1 -0.25358983849 0 0.09 -0.27091034656 0 0.08 -0.25358983849 0 
0.07 -0.27091034656 0 0.06 -0.25358983849 0 0.05 -0.27091034656 0 
0.04 -0.25358983849 0 0.03 -0.27091034656 0 0.02 -0.25358983849 0 
0.01 -0.27091034656 0 -1.7474921972e-14 -0.25358983849 0 -0.01 -0.27091034656 0 
-0.02 -0.25358983849 0 -0.03 -0.27091034656 0 -0.04 -0.25358983849 0 
-0.05 -0.27091034656 0 -0.06 -0.25358983849 0 -0.07 -0.27091034656 0 
-0.08 -0.25358983849 0 -0.09 -0.27091034656 0 -0.1 -0.25358983849 0 
-0.11 -0.27091034656 0 -0.12 -0.25358983849 0 -0.13 -0.27091034656 0 
-0.14 -0.25358983849 0 -0.15 -0.27091034656 0 -0.16 -0.25358983849 0 
-0.17 -0.27091034656 0 -0.18 -0.25358983849 0 -0.19 -0.27091034656 0 
-0.2 -0.25358983849 0 -0.21 -0.27091034656 0 -0.22 -0.25358983849 0 
-0.21 -0.23626933041 0 -0.23 -0.23626933041 0 -0.22 -0.21894882233 0 
-0.23 -0.27091034656 0 -0.24 -0.21894882233 0 -0.23 -0.20162831426 0 
-0.25 -0.20162831426 0 -0.24 -0.18430780618 0 -0.26 -0.18430780618 0 
-0.25 -0.16698729811 0 -0.27 -0.16698729811 0 -0.26 -0.14966679003 0 
-0.27 -0.20162831426 0 -0.28 -0.14966679003 0 -0.27 -0.13234628196 0 
-0.29 -0.13234628196 0 -0.28 -0.11502577388 0 -0.3 -0.11502577388 0 
-0.29 -0.097705265805 0 0.22 -0.28823085464 0 0.1 -0.28823085464 0 
-0.1 -0.28823085464 0 -0.22 -0.28823085464 0 -0.24 -0.28823085464 0 
0.02 -0.28823085464 0 -0.31 -0.13234628196 0 -0.31 -0.097705265805 0 
-0.3 -0.080384757729 0 -0.28 -0.080384757729 0 -0.29 -0.063064249654 0 
-0.31 -0.063064249654 0 -0.3 -0.045743741578 0 -0.28 -0.045743741578 0 
-0.29 -0.028423233502 0 -0.27 -0.028423233502 0 -0.28 -0.011102725427 0 
-0.3 -0.011102725427 0 -0.29 0.0062177826491 0 -0.27 0.0062177826491 0 
-0.28 0.023538290725 0 -0.26 0.023538290725 0 -0.27 0.0408587988 0 
-0.25 0.0408587988 0 -0.26 0.058179306876 0 -0.24 0.058179306876 0 
-0.25 0.075499814952 0 -0.23 0.075499814952 0 -0.24 0.092820323028 0 
-0.22 0.092820323028 0 -0.23 0.1101408311 0 -0.21 0.1101408311 0 
-0.22 0.12746133918 0 -0.2 0.12746133918 0 -0.21 0.14478184725 0 
-0.19 0.14478184725 0 -0.2 0.16210235533 0 -0.18 0.16210235533 0 
-0.19 0.17942286341 0 -0.17 0.17942286341 0 -0.21 0.17942286341 0 
-0.2 0.19674337148 0 -0.22 0.19674337148 0 -0.21 0.21406387956 0 
-0.23 0.21406387956 0 -0.22 0.23138438763 0 -0.24 0.23138438763 0 
-0.23 0.24870489571 0 -0.21 0.24870489571 0 -0.25 0.24870489571 0 
-0.27 0.075499814952 0 -0.22 0.26602540378 0 -0.2 0.26602540378 0 
-0.21 0.28334591186 0 -0.19 0.28334591186 0 -0.31 0.0062177826491 0 
-0.23 -0.16698729811 0 0.11 -0.23626933041 0 -0.2 0.30066641994 0 
-0.18 0.30066641994 0 -0.23 -0.30555136271 0 -0.25 -0.30555136271 0 
0.39 -0.37483339502 0 -0.09 -0.23626933041 0 -0.19 0.31798692801 0 
[...]
CELL_DATA 8442
FIELD FieldData 1
radiation%20flux%20density 1 8442 double
3.8940646089e-10 6.9898617521e-05 0.00061348669038 0.10339925786 0.08620200418 2.6266008767e-10 0.0087098303793 0.0014286506683 0.17011869082 
0.052647921116 3.8018685153e-05 1.269189706e-05 0.010476769846 0.010630816611 5.4784638538e-13 4.1791574688e-05 5.2943898529e-08 0.11256860485 
3.6005043747e-06 0.0049366516882 0.018058968476 5.5459821223e-13 5.8696705718e-11 1.480441196e-09 0.00011863395839 6.1840984496e-11 9.9584852564e-09 
9.7119843242e-05 1.6992004093e-05 0.073681792964 1.2377720487e-05 4.1270324725e-07 0.062732650241 0.061761768044 0.088544415711 0.021722231525 
0.021691480459 0.052727371835 0.003002355121 0.0029933830994 0.0001024458516 1.4060017201e-13 1.7470356139e-07 0.18160164754 0.00065565746 
0.00078991665762 0.0007416182182 2.4974651357e-12 2.534803084e-12 2.9317076299e-06 0.00027957852369 7.2639008145e-06 1.6558235036e-11 1.7120782233e-11 
3.0442882613e-06 0.043364091854 1.1588387584e-06 0.035927610727 0.038639807057 0.038013698873 0.064937622025 2.0563543503e-15 0.12897970366 
0.03196665012 5.8042326193e-09 3.2428245394e-05 2.0473220974e-07 6.5038661743e-14 0.00024767426813 0.0034600000816 0.0031460604568 6.3944942087e-09 
0.000259613308 0.021479018849 8.8322075815e-05 2.4771340987e-10 0.12916377069 0.16833197104 0.0067253869198 0.0068690137732 0.065906487011 
0.084550239541 2.938088135e-10 0.00010508361705 4.3337941012e-05 0.001068234229 0.0021048681603 1.4201226483e-12 1.470363751e-12 0.0063498941842 
0.0064177942923 0.00012515925222 0.14877501611 4.4647785258e-07 4.708768119e-07 0.1008094244 0.059038087464 0.0025936575 0.0025815392431 
1.2041090237e-05 1.1164758535e-15 8.8788930618e-05 0.00043855466697 0.00030972938662 3.6382181815e-08 0.00045080562605 4.5092730117e-06 0.10074607854 
6.6736182936e-12 6.7289440593e-12 2.1289880538e-13 1.6172343517e-06 7.3110143109e-11 7.7123820649e-11 8.5818795498e-10 1.465103153e-08 0.16429999679 
0.0028229868738 0.011289373201 0.011442974283 0.19208416062 3.772910177e-05 0.17410394528 0.0045514605794 0.0045885372205 0.021089048745 
0.0086875453635 0.0087132657014 0.10916340602 0.048788616784 0.00019896398307 0.001619484527 2.9568220147e-14 1.0980213478e-05 0.038933104868 
5.3719035889e-06 1.1317024557e-09 1.5080377466e-07 1.5725971929e-07 2.9531282326e-05 0.039787946496 147.70596974 147.60756938 0.10863751841 
0.0058573189617 0.005786446877 2.4552896057e-13 3.4957327577e-05 0.014729173399 0.00028114540702 0.19799659643 1.3923045931e-06 3.698164511e-06 
1.939724929e-11 2.0708974333e-11 3.7149613391e-11 6.1550224072e-11 0.083290113994 0.0014310535387 1.2706226597e-06 1.199618945e-06 0.052646357752 
3.2422371017e-11 3.1870014005e-11 0.00024342552814 1.6110204658e-07 2.4370172065e-10 4.2444137569e-05 0.086725161193 0.12867114539 1.6551803922e-09 
0.00056016123015 0.14391833016 148.81405702 148.88590179 1.3353176878e-10 148.87574664 148.77562007 0.0027019701988 1.3326649504e-10 
2.1923785578e-06 0.014311070731 0.014170452958 1.4667380772e-14 0.10781461857 6.3351459987e-05 8.4621175282e-15 1.2106906846e-05 4.2998876768e-09 
5.4802426606e-10 3.48926788e-13 3.5451840724e-13 4.0925044715e-06 5.3060645559e-10 1.9883206088e-09 2.2347659229e-08 8.4187064879e-07 1.5102449803e-05 
3.3520450574e-10 0.00078534804696 2.5082792031e-06 1.187338882e-05 0.014223851635 0.0011768657617 0.00097310108324 0.021842611172 0.014551888219 
0.041127936883 0.02923128445 0.0091969971026 0.0070905248456 0.0421776983 0.0035498983503 0.013188983817 0.0043218750187 0.00010082482054 
0.035067649858 0.017715442293 4.9880200348e-09 0.0047346063271 3.1279652466e-11 1.4905051818e-08 1.7058076623e-08 1.5095165945e-08 1.1258106052e-09 
5.738866787e-06 0.002990573001 10.538690701 11.360612881 10.770383481 11.281533095 9.9342421684 0.52759551844 10.930330728 
2.2585244974e-06 0.00014269470822 0.017175783623 0.11567574496 0.14975182285 11.312210692 11.291046783 10.720726631 10.618234793 
10.18950055 6.5580931217 9.8662447828 0.0056943317604 11.009170351 1.2061618438e-05 10.192120076 0.0003519042155 9.8821360497 
1.7688232547 5.634272123e-05 1.2626382977 0.10026530438 4.2417849392 0.16405920719 3.2880514132e-05 7.4628248015e-07 2.4640478851 
7.0766288835e-10 10.635410161 9.6812394278 11.236580448 0.84983931927 0.1087896092 10.278702356 0.27047234906 10.005378926 
3.2493241408 0.00050761078687 1.1919241072 9.2662003305 0.06311973953 10.080828013 8.9985052708 5.6919453054e-05 8.628931934e-12 
3.7693426253e-12 10.022148608 0.00081807650956 0.0011869193352 1.9170150339 9.8583416317 9.1667432514 3.1713542715e-05 5.8897583967 
3.2143380353 0.86743054486 2.8861566274 9.9490318793 9.9692315174 0.0026249438821 10.449281109 0.78489828899 8.9062930812 
10.232149673 -3.8035262577 -4.6911953433 3.6905264216e-11 9.8937314816 0.26050022761 -0.3348466995 11.038126955 9.9962264273 
3.6912992981 0.3689235159 3.1879099067 7.9448681915e-05 9.1811161512 0.033862631646 4.4265820927 0.40350530368 -2.4899411972 
4.1383383575 9.2942082669 9.458012991 9.9299728074 1.1467671494 1.2033144079 0.42103726207 8.1841247011 11.25364316 
0.52755389591 7.103260134 11.369222372 9.8910775508 -0.95050173639 0.3272079427 -1.2954116187 8.697694919 0.39552704617 
7.4117623667 4.2553657174 0.84870643271 -1.5417972903 3.7561391666 -0.80030993673 -4.6327189203 2.1235874036 -0.96178953468 
0.66160689473 -3.3545512266 9.2466858826 -3.0309833633 -4.466823552 9.1579010411 10.835932257 9.6764478847 1.8734948307e-12 
-2.5029808902 4.9164345483 0.29657390373 0.000462852281 8.9210947121 10.774428278 -3.8589630138 -2.829016678 0.58687156839 
5.9136647218 -3.2455957234 6.3217341972 0.00043327810886 9.6809183147 3.4931708961 -3.1739756029 6.6356676247 0.12628593037 
5.0978491671 1.0534423749 0.27083332443 6.7994017586 11.163984949 -2.8327199255 7.3238028255 10.573204695 9.7634378706 
0.50331518273 6.2859042967 0.2552603551 1.6334453985e-05 2.0406941179 1.0712418343 0.46920122784 11.09876114 0.69640203469 
9.0926148607 5.503115832 5.6189761333e-05 -3.2657182999 -2.8132115166 7.6650038526 0.86077377214 9.9381246307 2.9364542315e-06 
0.2059943764 7.7846478448 0.55080341218 -0.7672530637 10.278474071 8.7469625908 8.1852979713 9.0492507344e-06 10.06295142 
-1.3496315816 2.203117652e-05 9.6999545396 0.34280144968 1.6097291299 3.3057770886 -1.2301631468 1.5267920206 9.7304212419 
9.8547625324 0.73326594669 0.24987775395 0.4212487922 0.38116357517 7.91019718 -1.3555980985 -4.3275351784 8.4390307385 
0.00019973444556 4.6725802154 7.2060026153 11.413932452 -4.5325205982 11.175377406 0.43067653851 0.19300320158 0.11143556075 
6.6144087195 1.4508997236e-05 9.8681944158 0.34660103942 3.0501520909 7.3043458045 0.47506725333 6.420819673e-06 0.27471802681 
0.16145088419 -2.1591311204 -1.012364554 -3.3519516864 3.9341561684 3.517675538e-07 8.8531925083 2.3035120578 10.86512469 
0.57058698867 3.7927177679e-05 7.8815828834 9.8973567114 3.9903717383e-13 -2.9382941015 11.438086552 9.4804902082 0.23155377599 
1.074340683 -2.3576140549 9.4554031105 8.1448805517 -2.9968178212 -3.8184450445 -0.47915347733 0.0022911483939 -3.0152169563 
-3.064922211 9.8582928533 9.7737986032 0.010206522648 8.945305009 0.047688732381 9.0981151102 5.4015882806 -1.9083871861 
-2.9017736614 9.5113644296 1.5242301667 6.5275465997e-05 0.070059792935 9.2621698591 8.8726824005 -3.3674841443 0.040007082443 
-0.59808025846 -4.1279933389 1.0402973486 9.3672787394 -3.8195079212 -2.770113414 2.8689647622e-06 -3.0712806654 2.4244946393e-05 
-4.6161491032 1.4668472466e-06 3.2305891197 -1.6684043664 -2.2644026139 0.001870547387 7.4291671115 -3.7552809935 -0.26142351902 
1.6811484047e-11 5.8156018863 -2.5142469035 0.063125520876 -3.1203694217 -3.2650980784 11.363347891 1.9876934921 5.2687626608 
8.4456065644e-05 -3.6014001579 9.3417185201 11.404982232 11.228374356 -2.9783247052 -4.0787874129 0.00017260379715 0.23545175385 
3.4469419995 0.30360024039 4.5867767156 7.4976551811 -3.1208879033 -4.4179953273 6.4448525401 0.00012224045518 8.604655657 
0.0010355444025 -4.6475460719 0.52446459367 9.0913491653 -4.387360593 7.5490682292 9.9409852792 10.231751109 9.9338084373 
9.8798831365 5.944078623 3.0491424848 -4.592941192 9.8835122758 0.10921594606 4.792790539 9.4612507215e-08 7.3040156175 
0.89358841889 4.878559566 2.7058362193 10.635098568 -0.8915778695 0.020602400845 0.0038739845659 0.13167821151 -4.1437728911 
0.93392074458 -2.7400229159 0.27212400946 10.135465768 -2.5073722845 2.1940833201e-05 -1.5773776008 0.37878632737 11.022804036 
8.3392677419e-06 9.8669803417 4.4164926147 7.8562355754 -1.6306606949 -1.3843263467 -1.2953681203 4.3060163236e-06 10.929845511 
0.36059751575 6.2134440802 -2.3807500993 5.1482344231e-06 -4.6678822172 0.48835370405 1.798585501e-13 0.25260351405 9.9330089665 
0.31940766305 2.7780392683 -4.4612459507 -2.8496693508 10.508243581 6.4053626437 0.31028890109 -4.0317118105 2.5078205693 
5.6248533569 -4.7018805453 3.256096573 -2.7222500578 8.4114397056 -2.6161947941 1.9459329168e-07 0.020540045061 0.0085008395597 
9.8723522474 -1.2397873071 9.4753493486 3.0717212506e-10 2.6633200287e-06 1.2240801572 0.026555887674 2.4288344824 6.175498261 
0.55349516229 0.72339609878 -3.3362131006 0.18540356948 0.014894158885 7.238809633 10.188063871 10.035508396 9.8967407006 
10.773026548 11.145204007 10.720268569 11.008767008 5.3295871617e-05 1.1681406928e-05 -2.6101245115 5.6305318822 9.4091910729 
8.4911341829 3.3944681641 1.5187756541 10.938912836 0.0050222538238 -2.4103955777 4.9879390285e-07 -3.431966056 3.163329349e-06 
-1.5763673789 -1.8137513888 -0.82979427963 -4.1952598045 0.05640945501 0.29603808946 6.6355493283 -3.0801163108 4.5962243472 
10.205132615 0.098760697565 0.21049747101 6.1867934011 -3.347961568 0.89417820819 9.9351386617 -4.3971497456 0.00017448377769 
0.033208526651 8.6635306445 0.00016795376862 -3.7774328921 9.5477914492 1.0407723754 2.9117538112 3.173230135e-05 10.653130205 
0.061415274378 8.8421560204 11.174950381 0.024794060007 6.7395271925 10.881373607 0.17867956307 0.0099837332428 -4.0181494067 
0.0085668102663 9.4181016605 7.3301670813 -2.0439332217 0.53424590456 0.19064343844 2.1980073858e-09 7.8875351801 0.057610837593 
-0.91702274141 -0.71402446605 1.7640111009 1.0532979218 0.061648881208 9.5137106463 2.4242006801e-05 8.7739713375 11.310271193 
0.31977759236 -2.4142400537 9.0498692136e-06 1.5830678235 -3.747457602 -1.410816375 6.7041005498 0.60559576143 0.076309775914 
11.451783028 0.12415527471 -1.8863328865 7.2071967331 5.4680884648 0.45757770433 3.1876092226 7.4142419312 10.522834894 
11.367349091 8.7802505895 5.1666528746e-05 10.614728931 5.4535626854 11.351652686 -1.6988254377 5.2653489115e-06 1.3245562323 
9.6278928003 -2.4746962516 0.088635502331 9.8808525487 1.4727602686e-05 0.56463049231 6.5615144722 -3.466489297 -2.9387281967 
4.8119234143 9.4990021228 0.0021774584685 0.45820096636 1.7954468311e-12 3.3851228541e-14 6.7166838695 0.15318938153 0.80590965821 
5.478035645 -4.0969698197 -1.8902133706 1.4411176622 11.303742808 -2.8770794474 5.2967674685 11.098147891 -3.6850914617 
0.0020212179217 6.226378659 -4.5617198842 8.6468973645 10.509136458 9.265962029 -1.490672007 0.00040866370647 11.331568248 
-4.6208720289 0.0094409769639 -4.5093815333 7.9064376582e-13 -3.8355888096 1.4258094132 0.00022207948723 4.1952668982 1.4451953183e-05 
4.4368287017 -4.1019361182 3.3444670324 0.92540602509 -1.4800511625 2.3813476178 9.8754729887 0.020528967893 1.0784352526 
-3.0291913441 0.32318406083 0.35393300393 0.00054343631353 5.4096076395 7.1506731355 4.9244658174 0.36110047178 0.040125432394 
9.2037300484 0.65334742697 0.17541174528 0.0040032021653 9.8759877769 -3.9664311132 8.4378412467 5.3657907941 4.2291717466 
1.2067025011e-05 -4.2469462711 0.30980375569 5.251029955 8.2987836534 2.8410884847 10.465679024 -4.6339946138 4.1382271407 
0.00015038872488 3.5410377848e-07 -0.64170734184 8.5874427726 4.2769953162 1.0106353482e-06 3.4042875832 4.392616476 6.1295593819 
-4.6475355098 1.6960540267 9.7209855007e-09 4.4817953842 4.5965476251 1.7218823552 0.020545535655 6.1868145131 0.48855726023 
0.001840026011 1.1186742114e-07 5.9883531644e-07 -0.0065918708101 9.3419901145e-05 0.028969241463 3.2611321108 -3.2199767544 -0.13039755065 
0.1754797165 8.6027898114 8.7766616523 11.403389123 -3.5762634424 1.7681028273e-08 -0.32918473811 10.162597247 2.7911339313e-08 
0.00074189755557 -2.2495012732 10.466902176 2.011082742 2.7240241215 8.6823766201e-13 -4.2162938857 1.7638533892 1.0526501021 
2.1268170887 0.0048079431602 10.384264177 8.1874188037 6.3890085016 0.64393299426 0.12817031709 0.00096670904319 0.1630965585 
0.41001552017 0.011083929691 0.039960230425 8.1347731879 0.0022960285858 4.2994238582 2.2127898953e-05 0.00099646284509 0.00088046033039 
4.0608313317 7.3774204671 1.1186134927e-07 0.33737540886 0.70766604887 10.489472159 9.6944595433 -3.5321870971 6.4734354114 
5.7136145539 11.391815547 1.5198567208 7.5540486371 9.2123554228 9.16397205 3.6676371238 7.389213711 0.12026383946 
-3.9381552677 3.2896523285e-05 -2.1619413687 2.1402765427 -4.0531078911 6.2322358953 10.850462781 10.148473827 7.9546611315e-06 
0.00033366640257 9.5124260304 2.2443870719 0.80684669935 0.017385340915 0.00038161635713 -3.5172515708 3.1625518489e-06 7.8805296424 
0.015718747093 0.03233925813 1.2144136322e-12 -4.1766633274 1.5476903191 1.5541192258e-10 0.0055089074512 -3.8625251013 0.18628488983 
6.1433223753 -2.4915642299 7.3323351673 1.0912260297e-06 6.0701751395e-10 1.0906698311e-06 5.465963478 8.7393413876e-06 10.191732193 
-2.3707365146 10.820061074 5.9310175301 6.7112378957 -3.0366428071 -2.2526222721 7.5831173768 2.7122865245 1.7691449169 
3.7088469397 -2.0936272211 6.9932004887 5.3726099265e-06 0.4852904725 -4.2948268291 1.7383451024e-07 11.325004415 0.18674191485 
9.4591644093e-08 0.23661227306 0.00050061387685 1.963945955e-05 6.6266670768 3.2805427599 8.6490708197 5.7114238802 0.41895031075 
0.0074128377354 0.064614586018 0.01709794872 0.010055074838 0.24317609591 1.9000781619 0.25574607428 0.040204731664 -3.5986956006 
9.8654073707 0.77533649428 0.0097634522344 0.37225773326 0.00026578057846 3.263543301 1.8970521709e-06 10.938206305 0.33767639568 
2.1617131759 -4.5103386147 0.87498489529 5.0978623817 2.1595914355 0.065815495076 -3.3007786639 0.0017794367671 0.1221055637 
7.4007881278 7.0377015122e-05 -3.4355656974 8.7197886463 -1.066329578 7.3928549275 -3.5443935752 -4.5406436605 1.0066530784 
-0.93264722998 -0.25880351631 -4.292391861 -4.3118154311 1.0297918592 0.10603409104 -2.9368853203 1.4514879386 0.12475345242 
4.8127300719 1.1228392494e-07 6.5907956802 11.145978103 0.41551247636 0.2368419554 1.2136126591 4.442596134 1.9835407749e-06 
0.017816146364 -1.7398849876 10.492505751 9.9453910203 0.0016233524403 0.38452840796 9.5652824842 0.022266375923 -1.0655944845 
2.7906849906e-08 6.2002944379 2.3276320958 -4.2665174121 1.000565588 3.5172397658e-07 5.5483800135 8.8529222165 7.0262057186 
1.2629287528 0.14841912518 4.1410307486 0.10266543643 -1.5708921126 8.1835739098 -3.6547014228 0.71198043268 2.0427970657 
0.51866807393 5.0086388167 -1.3389735213 2.5617552904 4.3496259545e-06 -2.9611125034 -4.3952177639 7.5839825627 0.91683508432 
0.70615765541 5.0358021666 10.854492239 9.6701748973 -3.8036337142 8.1091808331e-09 -4.6500183658 6.5876397828 0.15976793674 
0.37192798803 1.7754201997 8.1934479781 -4.2025470699 0.46099506741 0.5126468863 0.0093643354441 10.76988921 6.2003978876e-07 
0.00043093927845 2.3439354462 7.8984460553e-06 0.21012526724 4.687515255 0.27779253821 2.1927867943e-05 0.0017634005133 0.0044082288049 
0.00080416278667 2.590803027e-07 4.6631869037 2.8953673997 0.6198971042 6.6774276966 10.708515214 11.352566268 9.778713396 
11.354318969 6.8406368476 0.0064614665871 5.7627304756 -4.3686489701 9.3658287475e-07 0.03555356512 -2.0782359562 9.3404155208 
-4.4063037659 1.4856981158e-12 2.0319785934e-12 0.027956676403 7.0084629906 -2.6522591557 5.4661650045 -1.699433634 8.4992603525 
0.61760511778 9.7673859172 -4.4595456746 5.712475366 -1.2882925481 3.1646878391 -4.0834096809 -2.4726992003 3.7540081206 
-3.7960833415 2.5585672769 -2.3813876776 0.66180481369 5.6447891071 -4.2344639804 1.3288831866 11.22523935 0.01012434213 
-4.6954831447 9.9688792295 0.43235590161 -4.0541360336 4.4336681506 0.14836188778 4.5163892737 -1.7364029133 0.41330003013 
9.4866041777 0.63745232992 0.0075930024694 8.5911491304 2.0835579385e-14 1.4674064156 6.0319084147 1.4256897948 0.10425981784 
0.84282247888 1.5326915043 -3.8263820675 2.57203167 3.700315017 9.3986034256 0.053351992532 0.13637186437 0.23845582877 
6.6233358335e-05 0.24974162292 0.19801374498 0.00040853660129 -3.0217173198 6.5578459659 0.00017007986243 -3.8943926205 7.1525396627 
5.5341282988 -1.6703699885 11.111135975 4.2235416029 2.2104525171e-07 2.3458499517e-07 0.13353009087 3.2266705785e-07 9.8925490952 
5.0140084422 0.0093805624909 0.68530551596 10.400738087 0.70317070628 0.27760104431 -3.4340795177 -2.6909873071 0.00031559547837 
-2.8316814977 -2.7064751408 0.013972714837 -3.00697974 -1.8192646953 3.1503252554e-07 -0.76487404295 0.0074215160227 -0.95198418514 
6.7072561132 8.4014253195 0.00034829840524 -2.7493287065 0.36927592092 1.7344578605 1.5319674147 9.5708485004e-12 9.9441774131 
5.6644898 0.65261787632 3.1493687957 0.00078559733862 -4.1799928378 4.9184793765 -4.2679968246 8.8977311986 -3.9940423353 
2.256349108 1.2259081579 3.08448357 3.6436785912 8.104285106 6.9652643866 3.4045302682 -3.3007742605 9.9439804842 
10.725403653 10.794658186 9.4839811863 0.10993847547 -2.3363537662 0.0010041588285 -3.2577161648 0.60102235045 0.012569003563 
0.009045576642 -1.9695696488 -4.1586338921 7.5583897748 9.1004925489 0.67042152882 9.6027548351e-07 9.5486577501 2.3733222531e-08 
11.147410305 6.7087849159 1.3762228772 9.8588309977 8.4185496613 -3.0639849085 5.2746323989 -2.3894257679 2.2585735689 
0.11996214545 0.046907049294 0.014705063379 3.8587136664 6.6967656884 11.121623266 4.4265405995 0.21029227238 0.069374595334 
0.00015021731719 0.9322234436 9.5455830156 4.5865490064 7.1627899043 4.1387250205 8.7501844757e-08 7.2123217947e-05 0.021215949899 
10.650000594 3.5134616363 4.6969377119 8.0932303141e-12 -2.6568432402 8.1870756395 0.14184488048 0.0010238004087 7.3885831754 
5.6938091031 0.00280694129 10.560192389 1.0273782509 -1.7334877665 -4.275117611 0.00031326676584 0.00024133471803 1.4578248199e-10 
0.1578013203 9.8830054735 9.6280615604 10.492898072 0.032802494435 -3.8690059424 -2.5394004585 0.085920676591 0.022069878245 
0.27420646277 0.14258268672 0.278527336 -3.9183091156 -3.4979488461 0.00021590350096 10.548551781 0.0035036403031 -2.512676027 
0.15505722708 9.3277698074 0.071307081124 -4.3762077782 11.320088269 8.0462246582e-05 8.7504483631 9.4777080324 0.18558590974 
7.6826207182 7.1854115669 0.022106517072 1.4291158565 2.9188015591 0.14028030451 8.2338766682 0.71824362656 0.025062003841 
-0.67453234823 3.2618034532 -2.3927098781 10.599931612 5.512176255 9.5468354011 0.041617838172 -2.9837863409 0.020112170463 
6.8852868486e-07 11.39113773 1.1241127382 5.8212381755e-06 3.4860476446e-07 3.3250526089e-07 2.4855611692e-07 0.0035121690976 0.34055976153 
-4.3004083198 1.5378402743e-07 0.85425397521 0.010276345383 0.51769490587 -1.0152628924 0.00021308760398 1.7792055697e-11 0.00022872857401 
7.0204052919 -3.664371331 0.0030037980966 -3.1583450667 6.0657477979 10.103813212 0.039125841037 -3.6801103068 -3.8356495493 
8.9523441293e-05 0.00054016727604 7.9438862443e-05 8.166332031 3.7929259776 7.3443854862 0.08117764431 2.9181595354 0.36524341115 
0.00046231205705 0.0097213634996 0.0015283873932 0.010134772654 10.646578813 -2.8860856466 -0.43314975358 0.38611103038 8.7379998664e-11 
-3.3508713835 5.4389522481 11.012020755 -2.7479461184 0.00054608309171 5.8310763854 0.01213663619 1.301618128 0.39385189949 
9.9872875929 1.0257240214e-07 8.8657058224e-09 -4.5041273215 0.050263060904 0.24247233237 0.12118310385 -2.8257563075 10.062270343 
1.7235031111 -4.4777418717 9.8918621327 1.5278521126 -3.6931267268 -3.9834786473 9.542555836e-07 -2.7292051787 6.5722326182 