# vtk DataFile Version 4.2
vtk output
ASCII
DATASET UNSTRUCTURED_GRID
POINTS 61 double
-0.6 -0.6 0 0.6 -0.6 0 0.6 0.6 0 
-0.6 0.6 0 0 0 0 -0.4 -0.6 0 
-0.2 -0.6 0 6.6613381478e-16 -0.6 0 0.2 -0.6 0 
0.4 -0.6 0 0.6 -0.4 0 0.6 -0.2 0 
0.6 6.6613381478e-16 0 0.6 0.2 0 0.6 0.4 0 
0.4 0.6 0 0.2 0.6 0 -6.6613381478e-16 0.6 0 
-0.2 0.6 0 -0.4 0.6 0 -0.6 0.4 0 
-0.6 0.2 0 -0.6 -6.6613381478e-16 0 -0.6 -0.2 0 
-0.6 -0.4 0 -0.088332399106 0.43353121176 0 -0.43353121176 -0.088332399106 0 
0.40841747107 -0.28277700638 0 0.098365396477 -0.42773865803 0 0.42773865803 0.098365396477 0 
-0.29915252614 -0.43064559099 0 0.28277700638 0.40841747107 0 -0.43064559099 0.29915252614 0 
-0.10013118828 -0.42759398766 0 -0.20781352442 -0.27458104075 0 -0.0060623725765 -0.26932681281 0 
0.19654300579 -0.27981612736 0 -0.42855941329 0.10180335451 0 -0.27474194502 0.20809221879 0 
-0.27627251382 0.017148940826 0 0.42968185474 -0.087368937613 0 0.25358983849 9.3513224001e-16 0 
0.27719329831 0.19755340122 0 0.089041103842 0.43064728037 0 -9.3611199873e-16 0.25358983849 0 
0.44021646687 0.29298768454 0 0.2928192853 -0.44065360504 0 -0.4176849844 -0.28566219856 0 
-0.28567861737 0.4177134226 0 0.1 -0.12679491924 0 0.12679491924 0.1 0 
-0.10384694829 0.12210748587 0 -0.12288196948 -0.10311927111 0 0.45358983849 -0.45358983849 0 
-0.45358983849 -0.45358983849 0 0.45358983849 0.45358983849 0 -0.45358983849 0.45358983849 0 
0.1476383677 0.28308824116 0 0.28288662677 -0.14773537411 0 -0.28834516088 -0.13980201577 0 
-0.13980201577 0.28834516088 0 
CELLS 96 384
3 38 48 32 
3 34 47 30 
3 42 45 31 
3 36 46 27 
3 44 51 50 
3 38 60 48 
3 34 59 47 
3 39 52 51 
3 27 58 36 
3 31 57 42 
3 50 51 4 
3 41 50 49 
3 51 52 4 
3 49 52 35 
3 6 33 30 
3 33 35 34 
3 8 28 7 
3 11 40 27 
3 13 29 12 
3 18 25 17 
3 23 26 22 
3 37 38 32 
3 16 43 31 
3 21 37 32 
3 33 34 30 
3 37 39 38 
3 11 27 10 
3 6 30 5 
3 7 33 6 
3 16 31 15 
3 21 32 20 
3 25 44 43 
3 26 39 37 
3 28 33 7 
3 25 43 17 
3 26 37 22 
3 28 35 33 
3 29 41 40 
3 12 40 11 
3 29 40 12 
3 17 43 16 
3 22 37 21 
3 28 36 35 
3 29 42 41 
3 49 50 4 
3 4 52 49 
3 14 45 13 
3 9 46 8 
3 19 48 18 
3 24 47 23 
3 28 46 36 
3 29 45 42 
3 13 45 29 
3 23 47 26 
3 8 46 28 
3 18 48 25 
3 5 54 0 
3 10 53 1 
3 15 55 2 
3 20 56 3 
3 0 54 24 
3 1 53 9 
3 2 55 14 
3 3 56 19 
3 40 58 27 
3 43 57 31 
3 35 52 34 
3 39 51 38 
3 48 60 25 
3 47 59 26 
3 50 57 44 
3 49 58 41 
3 36 49 35 
3 42 50 41 
3 14 55 45 
3 9 53 46 
3 19 56 48 
3 24 54 47 
3 30 54 5 
3 27 53 10 
3 31 55 15 
3 32 56 20 
3 25 60 44 
3 26 59 39 
3 41 58 40 
3 44 57 43 
3 46 53 27 
3 47 54 30 
3 45 55 31 
3 48 56 32 
3 42 57 50 
3 36 58 49 
3 44 60 51 
3 39 59 52 
3 52 59 34 
3 51 60 38 

CELL_TYPES 96
5
5
5
5
5
5
5
5
5
5
5
5
5
5
5
5
5
5
5
5
5
5
5
5
5
5
5
5
5
5
5
5
5
5
5
5
5
5
5
5
5
5
5
5
5
5
5
5
5
5
5
5
5
5
5
5
5
5
5
5
5
5
5
5
5
5
5
5
5
5
5
5
5
5
5
5
5
5
5
5
5
5
5
5
5
5
5
5
5
5
5
5
5
5
5
5

CELL_DATA 96
FIELD FieldData 1
radiation%20flux%20density 1 96 double
5.6645771993e-23 5.8205549204e-23 1.3946967664e-22 1.228377439e-22 11.28561234 2.4500996477e-17 5.3728116893e-18 9.9888630102 1.7234341038e-16 
1.7734699696e-16 14.453493001 10.97025424 14.106696534 9.6412191786 1.1282824642e-37 8.9119772298e-08 4.0142344006e-46 9.7098103087e-36 
5.7510009467e-45 1.4881060972e-45 2.3976102276e-47 4.9084881015e-19 7.503323968e-36 1.3986406303e-38 2.1352738634e-18 6.3046616742e-08 5.7316381111e-56 
1.0539013536e-60 4.0667295986e-46 3.9995312516e-56 6.9175583164e-61 2.4161870299e-16 5.7224811964e-18 2.6608663651e-37 1.1384572938e-35 1.5403472729e-37 
3.0240784518e-18 2.0418058901e-16 5.244282784e-45 1.2798800542e-35 1.5270535626e-45 2.7196086837e-47 9.0735244885e-08 4.1576110711e-07 14.014691686 
13.890545823 6.0044193763e-61 3.6835883176e-61 2.2680518897e-57 2.2838806451e-57 9.0913570104e-19 4.7162253604e-18 2.4286173599e-36 9.6937483742e-38 
1.5976563778e-37 2.4557038756e-36 8.2384536828e-102 3.7742167804e-101 3.9897869712e-101 8.1637137003e-102 7.4775855298e-102 4.9542903302e-101 5.2170112324e-101 
7.4114258674e-102 1.1612914926e-16 1.1233391102e-16 2.6448281578 2.755779688 1.7617655491e-17 2.9964062867e-18 5.1715463451 4.4056341409 
2.2548953052 2.8105226965 1.946365042e-66 1.3781401526e-66 1.7004957164e-67 1.8416284702e-67 1.6582481992e-67 1.485237044e-66 2.1019039736e-66 
1.5314099443e-67 7.4963763503e-07 8.325446735e-08 5.2253612471e-07 7.8025282244e-07 5.335935762e-47 3.5325004317e-48 6.0922357047e-47 3.2968871925e-48 
1.4844488897e-06 8.0277407721e-07 4.4222355551 3.2651952207 1.8777897497e-07 1.0565528706e-06 
POINT_DATA 61
FIELD FieldData 1
radiation%20flux%20density 1 61 double
7.8580196063e-102 4.3642535553e-101 4.6033991018e-101 7.7875697839e-102 14.116356761 3.5130050648e-61 3.7609415607e-38 8.8695545772e-38 5.3255212728e-38 
1.2278673663e-61 1.9105460371e-56 3.236603438e-36 4.2662668511e-36 8.0953912187e-37 2.0014796133e-61 1.3331770839e-56 2.5011079898e-36 3.7948576469e-36 
8.1856795904e-37 7.5601729664e-58 2.3058532826e-61 4.6621354433e-39 5.1344909115e-38 3.2312494589e-38 7.6129354844e-58 1.2493960588e-07 1.387574456e-08 
4.1210383212e-17 1.5122540815e-08 6.9293517887e-08 3.5588867816e-19 4.1383006779e-17 8.1817575988e-20 1.4853295384e-08 0.44080473911 2.4234904702 
0.37581603311 1.0507769458e-08 0.45929680126 2.6683063442 8.7089354171e-08 3.0310686693 0.46842076612 1.3004213713e-07 3.4798992951 
7.8606080501e-19 1.515430898e-19 1.1956108831e-18 6.0169583734e-18 7.8824630252 8.3865888278 8.1446687409 7.6481925874 1.0671871524e-47 
7.0650008634e-49 1.2184471409e-47 6.5937743851e-49 1.034309722 0.88112709324 0.65303909834 0.88444747226 
