# vtk DataFile Version 4.2
vtk output
ASCII
DATASET UNSTRUCTURED_GRID
POINTS 4342 double
-0.6 -0.6 0 0.6 -0.6 0 0.6 0.6 0 
-0.6 0.6 0 0 0 0 -0.58 -0.6 0 
-0.56 -0.6 0 -0.54 -0.6 0 -0.52 -0.6 0 
-0.5 -0.6 0 -0.48 -0.6 0 -0.46 -0.6 0 
-0.44 -0.6 0 -0.42 -0.6 0 -0.4 -0.6 0 
-0.38 -0.6 0 -0.36 -0.6 0 -0.34 -0.6 0 
-0.32 -0.6 0 -0.3 -0.6 0 -0.28 -0.6 0 
-0.26 -0.6 0 -0.24 -0.6 0 -0.22 -0.6 0 
-0.2 -0.6 0 -0.18 -0.6 0 -0.16 -0.6 0 
-0.14 -0.6 0 -0.12 -0.6 0 -0.1 -0.6 0 
-0.08 -0.6 0 -0.06 -0.6 0 -0.04 -0.6 0 
-0.02 -0.6 0 -8.881784197e-16 -0.6 0 0.02 -0.6 0 
0.04 -0.6 0 0.06 -0.6 0 0.08 -0.6 0 
0.1 -0.6 0 0.12 -0.6 0 0.14 -0.6 0 
0.16 -0.6 0 0.18 -0.6 0 0.2 -0.6 0 
0.22 -0.6 0 0.24 -0.6 0 0.26 -0.6 0 
0.28 -0.6 0 0.3 -0.6 0 0.32 -0.6 0 
0.34 -0.6 0 0.36 -0.6 0 0.38 -0.6 0 
0.4 -0.6 0 0.42 -0.6 0 0.44 -0.6 0 
0.46 -0.6 0 0.48 -0.6 0 0.5 -0.6 0 
0.52 -0.6 0 0.54 -0.6 0 0.56 -0.6 0 
0.58 -0.6 0 0.6 -0.58 0 0.6 -0.56 0 
0.6 -0.54 0 0.6 -0.52 0 0.6 -0.5 0 
0.6 -0.48 0 0.6 -0.46 0 0.6 -0.44 0 
0.6 -0.42 0 0.6 -0.4 0 0.6 -0.38 0 
0.6 -0.36 0 0.6 -0.34 0 0.6 -0.32 0 
0.6 -0.3 0 0.6 -0.28 0 0.6 -0.26 0 
0.6 -0.24 0 0.6 -0.22 0 0.6 -0.2 0 
0.6 -0.18 0 0.6 -0.16 0 0.6 -0.14 0 
0.6 -0.12 0 0.6 -0.1 0 0.6 -0.08 0 
0.6 -0.06 0 0.6 -0.04 0 0.6 -0.02 0 
0.6 -8.881784197e-16 0 0.6 0.02 0 0.6 0.04 0 
0.6 0.06 0 0.6 0.08 0 0.6 0.1 0 
0.6 0.12 0 0.6 0.14 0 0.6 0.16 0 
0.6 0.18 0 0.6 0.2 0 0.6 0.22 0 
0.6 0.24 0 0.6 0.26 0 0.6 0.28 0 
0.6 0.3 0 0.6 0.32 0 0.6 0.34 0 
0.6 0.36 0 0.6 0.38 0 0.6 0.4 0 
0.6 0.42 0 0.6 0.44 0 0.6 0.46 0 
0.6 0.48 0 0.6 0.5 0 0.6 0.52 0 
0.6 0.54 0 0.6 0.56 0 0.6 0.58 0 
0.58 0.6 0 0.56 0.6 0 0.54 0.6 0 
0.52 0.6 0 0.5 0.6 0 0.48 0.6 0 
0.46 0.6 0 0.44 0.6 0 0.42 0.6 0 
0.4 0.6 0 0.38 0.6 0 0.36 0.6 0 
0.34 0.6 0 0.32 0.6 0 0.3 0.6 0 
0.28 0.6 0 0.26 0.6 0 0.24 0.6 0 
0.22 0.6 0 0.2 0.6 0 0.18 0.6 0 
0.16 0.6 0 0.14 0.6 0 0.12 0.6 0 
0.1 0.6 0 0.08 0.6 0 0.06 0.6 0 
0.04 0.6 0 0.02 0.6 0 8.881784197e-16 0.6 0 
-0.02 0.6 0 -0.04 0.6 0 -0.06 0.6 0 
-0.08 0.6 0 -0.1 0.6 0 -0.12 0.6 0 
-0.14 0.6 0 -0.16 0.6 0 -0.18 0.6 0 
-0.2 0.6 0 -0.22 0.6 0 -0.24 0.6 0 
-0.26 0.6 0 -0.28 0.6 0 -0.3 0.6 0 
-0.32 0.6 0 -0.34 0.6 0 -0.36 0.6 0 
-0.38 0.6 0 -0.4 0.6 0 -0.42 0.6 0 
-0.44 0.6 0 -0.46 0.6 0 -0.48 0.6 0 
-0.5 0.6 0 -0.52 0.6 0 -0.54 0.6 0 
-0.56 0.6 0 -0.58 0.6 0 -0.6 0.58 0 
-0.6 0.56 0 -0.6 0.54 0 -0.6 0.52 0 
-0.6 0.5 0 -0.6 0.48 0 -0.6 0.46 0 
-0.6 0.44 0 -0.6 0.42 0 -0.6 0.4 0 
-0.6 0.38 0 -0.6 0.36 0 -0.6 0.34 0 
-0.6 0.32 0 -0.6 0.3 0 -0.6 0.28 0 
-0.6 0.26 0 -0.6 0.24 0 -0.6 0.22 0 
-0.6 0.2 0 -0.6 0.18 0 -0.6 0.16 0 
-0.6 0.14 0 -0.6 0.12 0 -0.6 0.1 0 
-0.6 0.08 0 -0.6 0.06 0 -0.6 0.04 0 
-0.6 0.02 0 -0.6 8.881784197e-16 0 -0.6 -0.02 0 
-0.6 -0.04 0 -0.6 -0.06 0 -0.6 -0.08 0 
-0.6 -0.1 0 -0.6 -0.12 0 -0.6 -0.14 0 
-0.6 -0.16 0 -0.6 -0.18 0 -0.6 -0.2 0 
-0.6 -0.22 0 -0.6 -0.24 0 -0.6 -0.26 0 
-0.6 -0.28 0 -0.6 -0.3 0 -0.6 -0.32 0 
-0.6 -0.34 0 -0.6 -0.36 0 -0.6 -0.38 0 
-0.6 -0.4 0 -0.6 -0.42 0 -0.6 -0.44 0 
-0.6 -0.46 0 -0.6 -0.48 0 -0.6 -0.5 0 
-0.6 -0.52 0 -0.6 -0.54 0 -0.6 -0.56 0 
-0.6 -0.58 0 0.25 -0.58267949192 0 -0.25 -0.58267949192 0 
-0.24969338163 0.58271630631 0 0.58313820224 0.25089999788 0 -0.58073798855 0.23055415423 0 
0.23 0.58267949192 0 0.5822727489 -0.23023532651 0 -0.58232885758 -0.22986293355 0 
-0.13 -0.58267949192 0 0.58091085312 0.12866705289 0 -0.13050081 0.58443309409 0 
0.13 -0.58267949192 0 0.11 0.58267949192 0 0.58128887437 -0.11185352307 0 
-0.58641004823 0.11046978504 0 -0.58097603768 -0.11235367818 0 -0.01 0.5841811861 0 
0.01 -0.58267949192 0 0.58217507245 0.011050809949 0 -0.58206506685 -0.010494327869 0 
0.58255589861 -0.33012459525 0 -0.58098267687 0.33246863147 0 0.33 0.58267949192 0 
-0.58090018381 -0.32734039494 0 0.35 -0.58267949192 0 0.58210978525 0.34851718814 0 
-0.34984356206 0.58269328777 0 -0.35 -0.58267949192 0 -0.58404031657 -0.41125547479 0 
0.58404031657 -0.41125547479 0 0.41 0.58267949192 0 -0.58127371569 0.40748932397 0 
0.43 -0.58267949192 0 0.58287041801 0.42966930632 0 -0.43030661837 0.58271630631 0 
-0.43 -0.58267949192 0 0.49 0.58267949192 0 0.58119455181 -0.49272606834 0 
-0.58196591894 0.48785347999 0 -0.58132747275 -0.49216380446 0 0.58099079541 0.19297246443 0 
-0.18926154554 0.58413656679 0 0.05 0.58267949192 0 0.19 -0.58267949192 0 
-0.07 -0.58267949192 0 0.58212565717 -0.051217328366 0 -0.07 0.58267949192 0 
0.58245912871 0.070013739955 0 0.07 -0.58267949192 0 0.58168449499 -0.17128271923 0 
-0.58574378526 0.05125913651 0 0.17050081 0.58443309409 0 -0.58168449499 -0.17128271923 0 
-0.58573295936 0.16883725031 0 -0.19 -0.58267949192 0 0.49 -0.58267949192 0 
-0.49050081 0.58443309409 0 0.58415322569 0.48921568047 0 -0.49 -0.58267949192 0 
0.53 -0.58267949192 0 0.58203286059 0.53119351335 0 -0.53 0.58267949192 0 
-0.58222913959 -0.53018403998 0 0.58202539473 0.28969699417 0 -0.29 0.58267949192 0 
-0.58451963751 -0.45057023735 0 -0.58267949192 -0.07 0 -0.29 -0.58267949192 0 
-0.03 -0.58267949192 0 0.39 -0.58267949192 0 0.58307204747 0.39068583015 0 
-0.39 0.58373814012 0 0.29 -0.58267949192 0 0.58208722445 -0.45065236781 0 
0.45042926572 0.58129593389 0 -0.58211115223 0.44955595746 0 -0.58432719917 -0.36932980655 0 
-0.58406793967 -0.26883049013 0 0.5820526686 -0.36901719046 0 0.37 0.58267949192 0 
-0.5823078615 0.36998422007 0 -0.39 -0.58267949192 0 -0.58211498987 0.271305057 0 
-0.53 -0.58267949192 0 0.58222913959 -0.53018403998 0 0.53 0.58373814012 0 
-0.58219774606 0.53090792334 0 0.58030324732 -0.28813008885 0 0.29050081 0.58443309409 0 
-0.58188605505 -0.56816348762 0 0.56922649731 -0.58312607391 0 0.58067979276 0.57009350437 0 
-0.57009384201 0.58146184644 0 0.54987108288 -0.58275392226 0 0.53997851381 -0.5653713889 0 
0.51999641897 -0.56536105136 0 0.52999582213 -0.54804088787 0 0.50999870685 -0.54803922237 0 
0.51999908816 -0.53071849415 0 0.4999996325 -0.53071817987 0 0.50999978678 -0.51339758273 0 
0.48999990321 -0.5133975155 0 0.49999994833 -0.49607698138 0 0.47999997526 -0.49607696583 0 
0.48999998726 -0.47875645082 0 0.46999999375 -0.47875644708 0 0.47999999684 -0.46143593722 0 
0.45999999843 -0.4614359363 0 0.46999999921 -0.44411542777 0 0.44999999961 -0.44411542755 0 
0.4599999998 -0.42679491936 0 0.4399999999 -0.4267949193 0 0.44999999995 -0.4094744112 0 
0.42999999998 -0.40947441118 0 0.43999999999 -0.3921539031 0 0.41999999999 -0.3921539031 0 
0.43 -0.37483339502 0 0.41 -0.37483339502 0 0.42 -0.35751288694 0 
0.4 -0.35751288694 0 0.41 -0.34019237886 0 0.39 -0.34019237886 0 
0.4 -0.32287187079 0 0.38 -0.32287187079 0 0.39 -0.30555136271 0 
0.37 -0.30555136271 0 0.38 -0.28823085464 0 0.36 -0.28823085464 0 
0.37 -0.27091034656 0 0.35 -0.27091034656 0 0.36 -0.25358983849 0 
0.34 -0.25358983849 0 0.35 -0.23626933041 0 0.33 -0.27091034656 0 
0.32 -0.25358983849 0 0.31 -0.27091034656 0 0.3 -0.25358983849 0 
0.29 -0.27091034656 0 0.28 -0.25358983849 0 0.27 -0.27091034656 0 
0.26 -0.25358983849 0 0.25 -0.27091034656 0 0.27 -0.23626933041 0 
0.24 -0.25358983849 0 0.23 -0.27091034656 0 0.22 -0.25358983849 0 
0.21 -0.27091034656 0 0.2 -0.25358983849 0 0.19 -0.27091034656 0 
0.18 -0.25358983849 0 0.17 -0.27091034656 0 0.19 -0.23626933041 0 
0.16 -0.25358983849 0 0.15 -0.27091034656 0 0.14 -0.25358983849 0 
0.13 -0.27091034656 0 0.12 -0.25358983849 0 0.11 -0.27091034656 0 
0.1 -0.25358983849 0 0.09 -0.27091034656 0 0.08 -0.25358983849 0 
0.07 -0.27091034656 0 0.06 -0.25358983849 0 0.05 -0.27091034656 0 
0.04 -0.25358983849 0 0.03 -0.27091034656 0 0.02 -0.25358983849 0 
0.01 -0.27091034656 0 -1.7474921972e-14 -0.25358983849 0 -0.01 -0.27091034656 0 
-0.02 -0.25358983849 0 -0.03 -0.27091034656 0 -0.04 -0.25358983849 0 
-0.05 -0.27091034656 0 -0.06 -0.25358983849 0 -0.07 -0.27091034656 0 
-0.08 -0.25358983849 0 -0.09 -0.27091034656 0 -0.1 -0.25358983849 0 
-0.11 -0.27091034656 0 -0.12 -0.25358983849 0 -0.13 -0.27091034656 0 
-0.14 -0.25358983849 0 -0.15 -0.27091034656 0 -0.16 -0.25358983849 0 
-0.17 -0.27091034656 0 -0.18 -0.25358983849 0 -0.19 -0.27091034656 0 
-0.2 -0.25358983849 0 -0.21 -0.27091034656 0 -0.22 -0.25358983849 0 
-0.21 -0.23626933041 0 -0.23 -0.23626933041 0 -0.22 -0.21894882233 0 
-0.23 -0.27091034656 0 -0.24 -0.21894882233 0 -0.23 -0.20162831426 0 
-0.25 -0.20162831426 0 -0.24 -0.18430780618 0 -0.26 -0.18430780618 0 
-0.25 -0.16698729811 0 -0.27 -0.16698729811 0 -0.26 -0.14966679003 0 
-0.27 -0.20162831426 0 -0.28 -0.14966679003 0 -0.27 -0.13234628196 0 
-0.29 -0.13234628196 0 -0.28 -0.11502577388 0 -0.3 -0.11502577388 0 
-0.29 -0.097705265805 0 0.22 -0.28823085464 0 0.1 -0.28823085464 0 
-0.1 -0.28823085464 0 -0.22 -0.28823085464 0 -0.24 -0.28823085464 0 
0.02 -0.28823085464 0 -0.31 -0.13234628196 0 -0.31 -0.097705265805 0 
-0.3 -0.080384757729 0 -0.28 -0.080384757729 0 -0.29 -0.063064249654 0 
-0.31 -0.063064249654 0 -0.3 -0.045743741578 0 -0.28 -0.045743741578 0 
-0.29 -0.028423233502 0 -0.27 -0.028423233502 0 -0.28 -0.011102725427 0 
-0.3 -0.011102725427 0 -0.29 0.0062177826491 0 -0.27 0.0062177826491 0 
-0.28 0.023538290725 0 -0.26 0.023538290725 0 -0.27 0.0408587988 0 
-0.25 0.0408587988 0 -0.26 0.058179306876 0 -0.24 0.058179306876 0 
-0.25 0.075499814952 0 -0.23 0.075499814952 0 -0.24 0.092820323028 0 
-0.22 0.092820323028 0 -0.23 0.1101408311 0 -0.21 0.1101408311 0 
-0.22 0.12746133918 0 -0.2 0.12746133918 0 -0.21 0.14478184725 0 
-0.19 0.14478184725 0 -0.2 0.16210235533 0 -0.18 0.16210235533 0 
-0.19 0.17942286341 0 -0.17 0.17942286341 0 -0.21 0.17942286341 0 
-0.2 0.19674337148 0 -0.22 0.19674337148 0 -0.21 0.21406387956 0 
-0.23 0.21406387956 0 -0.22 0.23138438763 0 -0.24 0.23138438763 0 
-0.23 0.24870489571 0 -0.21 0.24870489571 0 -0.25 0.24870489571 0 
-0.27 0.075499814952 0 -0.22 0.26602540378 0 -0.2 0.26602540378 0 
-0.21 0.28334591186 0 -0.19 0.28334591186 0 -0.31 0.0062177826491 0 
-0.23 -0.16698729811 0 0.11 -0.23626933041 0 -0.2 0.30066641994 0 
-0.18 0.30066641994 0 -0.23 -0.30555136271 0 -0.25 -0.30555136271 0 
0.39 -0.37483339502 0 -0.09 -0.23626933041 0 -0.19 0.31798692801 0 
[...]
CELL_DATA 8442
FIELD FieldData 1
flux 1 8442 double
3.2231211449e-08 0.0006395431292 0.0061296418678 0.14547705835 0.041698325893 3.4283967745e-08 0.043486700502 0.011594851072 0.26742540608 
0.032138731651 0.00036216079278 0.00012661744921 0.042921590535 0.043585173365 4.1037514332e-10 0.00045919661903 2.0229268806e-06 0.31708332864 
3.4155259724e-05 0.030254898613 0.047824829808 4.0689622388e-10 1.1764654394e-08 8.4696123949e-08 0.0010257034367 1.1413953488e-08 2.4759640883e-07 
0.0010811114784 0.0001452962629 0.024190968234 0.00010565973682 4.5313186569e-06 0.056943857507 0.055533766506 0.048264587798 0.0694571114 
0.069456441925 0.035823776078 0.020944191823 0.021189567323 0.0011904815303 2.1240287912e-10 6.172105537e-06 0.53254503891 0.0073929182826 
0.0046709789076 0.0053920382371 1.5163607822e-09 1.4944373117e-09 2.8597775598e-05 0.0026043777279 7.7103938933e-05 4.0425730909e-09 3.9100463009e-09 
2.555711608e-05 0.020371473766 1.2686428304e-05 0.074525487426 0.043841387047 0.042680328108 0.060117860366 2.9485052406e-12 0.041319944176 
0.044223305442 2.5581105949e-07 0.00025661167302 1.950250154e-06 6.1145879145e-11 0.0037114809582 0.024747700468 0.022978535245 2.4624847434e-07 
0.0024175951011 0.012736652968 0.00079340593686 3.8530324926e-08 0.039636698667 0.44341292035 0.038180764235 0.038815063501 0.062138984976 
0.050402386428 1.9914623279e-08 0.010340495525 0.0053464810208 0.035949456276 0.051691412 9.2281275903e-10 9.2892683081e-10 0.019558782096 
0.019727906248 0.0013634848877 0.10599594085 4.6282467596e-06 4.5038119229e-06 0.039063969252 0.11619680489 0.019825832148 0.019681049981 
0.00017010404995 2.3136130963e-12 0.0008194971835 0.0040660836788 0.0028519518047 7.2907435685e-07 0.0039834937722 4.0472785611e-05 0.049667969466 
3.3729290731e-09 3.3311764645e-09 2.1860451989e-10 1.3982303455e-05 1.7124957289e-08 1.6345492429e-08 7.0584321482e-08 7.4217922063e-07 0.29942963205 
0.020363395765 0.051846166141 0.05231275392 0.49056020504 0.00033366255717 0.56700387102 0.030129350419 0.030458330805 0.068878195927 
0.032116282785 0.03200376095 0.035482067496 0.066761328558 0.0017748376183 0.013506644768 5.1611965167e-11 9.195657272e-05 0.035498697515 
4.1356275613e-05 7.2885464547e-08 1.9180398695e-06 1.8598993133e-06 0.00022550608354 0.037451820379 4.1599869063 4.1584984083 0.1571171574 
0.032712139419 0.032526496124 2.7315175377e-10 0.00036106917397 0.060851276633 0.0026669362327 0.62775446466 1.1733708248e-05 3.0746223202e-05 
5.8257710169e-09 5.7788582833e-09 4.9867533247e-09 9.8766588687e-09 0.028189723808 0.01212755931 1.0652377586e-05 1.1465320107e-05 0.068633962193 
1.2450678571e-08 1.2609811594e-08 0.0025769027186 1.8483401652e-06 3.5690526503e-08 0.00036093098258 0.053205689223 0.33464128433 1.0732539664e-07 
0.0048476267677 0.086658070475 4.1753234608 4.1756442215 4.171926598e-08 4.1788711997 4.176955784 0.019659350729 4.1125069951e-08 
1.735568761e-05 0.032318024379 0.031996519945 2.7086965953e-11 0.32851131296 0.00037566198315 1.1203968767e-11 0.00011881717637 1.157193644e-06 
1.3191558259e-07 2.7862800088e-10 2.7713617231e-10 3.7854572865e-05 1.2686074495e-07 3.7348124628e-07 2.0405564703e-05 0.0002256338017 0.0028877476039 
9.0312993382e-07 0.018125530863 0.00045451441045 0.001215573007 0.073871225849 0.053344874765 0.042431421204 0.074568024531 0.077249196037 
0.15329188614 0.072100607037 0.031536046165 0.019746437032 0.16190271226 0.010072035711 0.063415284029 0.040935439421 0.011074206969 
0.10373584787 0.029845033287 6.9783402345e-06 0.082235844027 5.3608153363e-08 3.396389751e-07 3.6752951307e-07 3.1717463121e-06 3.9933585207e-07 
0.00094542817825 0.011627794142 0.91449320266 1.5174268854 1.4994593346 0.93340639829 1.6396931346 0.3882271384 1.6239927124 
0.00059190698282 0.0079997980164 0.145009003 0.37144025971 0.49366339013 1.4363317057 1.2739523653 1.4904537129 1.1864460615 
1.4633216656 1.5225133862 1.0833526268 0.092007134617 1.2743745182 0.0018202968385 1.320704829 0.014113260717 1.1882722284 
0.72430291673 0.0010661837797 0.56748642735 0.15737391799 0.99098092117 0.23582167471 0.0034904428248 0.00028286129822 0.79167997586 
1.410208217e-06 1.1181671683 1.137309563 0.72250614626 0.49303730041 0.10501951663 0.98997618662 0.30099014245 0.90484970222 
0.94872626047 0.022047379345 0.88154381203 0.98030067556 0.28032755956 1.1322448096 0.87881367733 0.0042052480769 1.1130195281e-08 
3.5530688666e-09 1.2240509178 0.024621223738 0.036246180431 1.1445546142 0.86457782202 1.3118083987 0.00043777199741 1.4151972452 
1.3171870192 0.69593564502 0.29565369769 1.2564467153 1.6383043571 0.060230750808 1.7031394856 0.65010955355 0.8443935076 
1.6313124615 0.88200541419 1.3089392798 3.8793341946e-08 1.6657262316 0.61584447345 1.1988753441 1.6765546718 1.0665330166 
1.4720530168 0.32771984215 0.27415914764 0.00082865950343 1.4411331764 0.20551469231 0.48021371975 0.13024601809 0.88807269767 
0.30912131066 0.66890439866 1.2452867445 1.8367669366 0.89992427178 0.7805645815 0.42380876725 1.5142209946 1.6050971949 
0.37360866612 1.3988511547 0.95990221212 1.4645882272 1.5191040344 0.16038353941 1.4235402871 1.0808159469 0.26394585512 
0.51721293882 1.8038912989 0.75668835652 1.2845544242 1.3239844262 1.6170261904 1.5940355584 0.26576798566 1.2615728412 
0.51411670021 1.0894431872 1.2754503514 0.77134676926 1.0852752231 1.3299295703 1.4157204961 0.99325380194 3.1942586981e-09 
0.82878152841 1.3639986795 0.77215930691 0.0028172375159 1.3127504219 1.2297321234 0.920643463 0.86056790651 0.18735426032 
1.2507719992 0.87908603228 1.4182387356 0.022615444925 1.1371649168 1.5264022979 1.1902759652 1.100093327 0.11932583786 
1.0618063984 0.17286872676 0.30110872798 1.2188728226 1.612346559 1.2533752997 1.3178556362 0.66534340597 1.0044920909 
0.2319066284 1.0383302901 0.08711363837 0.00016546813581 1.4859129311 1.0113424448 0.99900349918 0.93551089415 0.88417802771 
1.4566599386 0.52404832027 0.0010630467341 0.96440556689 1.0503481279 1.4265233543 0.58320775954 1.3488638292 2.9752728446e-05 
0.19145168326 0.73801652989 0.47905446504 1.2145557698 0.98997774869 1.2888194399 1.0205949496 0.00070615987359 0.9679573787 
1.2026917353 0.00056065209497 0.81635757009 0.47002393938 1.1317219807 1.2747429889 1.2377686736 0.19877110254 1.2908032463 
0.79378573238 1.8833032439 1.4412639382 0.42373791571 0.26431942405 1.4286419165 1.2795421172 1.4763308584 1.3582938373 
0.0015951490181 0.83990979327 0.90745085866 0.94951384274 1.3366349258 1.5159415217 0.75125780148 0.26555424828 0.098756555051 
1.1264822028 0.0006605855305 0.86453520527 0.24912724827 0.69049980495 1.4021456332 0.53914916145 0.0013181995835 0.064960555607 
0.23373017819 0.91956230297 1.366771122 0.75030898231 0.71704714004 6.5727673679e-05 1.6334707802 1.225639924 0.92519375292 
0.36143306532 0.0012957987151 1.3559040195 1.0607427888 8.2264380395e-10 0.7697561884 1.0206254022 1.1018988807 0.25033364084 
1.5185687436 0.75291466478 1.4556371765 1.3696396639 0.72244579015 0.84339621942 1.2113431076 0.057681374209 1.0297595329 
0.71492743784 0.86460845571 0.77239289123 0.16752321748 1.6690831697 0.26222820817 1.3094504315 1.5168979959 1.0164314716 
0.9112196998 1.2198736061 2.1378004051 0.0032692175515 0.085989962441 0.69496026694 1.0384531973 0.71066312632 0.050572694483 
1.3663297836 1.0785460632 0.67997700206 1.7008954442 0.97247100055 1.1933815681 0.00012765146862 0.83241103607 0.0014329694673 
1.3046276262 4.5348418943e-05 0.70289839843 1.3764064325 1.1131390729 0.040280498727 1.4249806364 1.1322005649 1.4688373248 
1.2217961022e-08 0.88275757501 0.87802159551 0.066797478378 0.74144364214 0.72907540682 1.2925988965 0.7536139498 1.1209660511 
0.0068773154079 0.95395353136 0.68072848639 1.348411698 0.98174035595 0.83049083454 1.2627431953 0.0057309023203 0.21092600506 
0.84956070394 1.1411899539 1.2286207488 1.3491917578 0.7238570104 1.460468232 1.3929430556 0.0092616484574 1.3339385936 
0.038497816347 1.6710041071 0.75377623205 1.4561296075 1.2814897129 1.6237828899 1.9650611229 1.6310460476 1.6397885954 
1.7570298764 0.88008582603 0.69058447886 0.87030448598 1.2669725667 0.20115745502 1.6441119406 4.0288427858e-05 1.4023691205 
0.21995699305 1.5365914326 1.2301591896 1.1180222334 0.84881865601 0.18312652052 0.017402132743 0.19198876852 1.2320531262 
0.70147751841 1.0485638693 0.44275282931 1.1603704736 1.2651267201 0.00055698797577 0.71021743731 0.12796089139 0.91850603003 
6.6109314003e-05 0.89051032164 0.57921910377 0.82668992241 0.92002516761 0.73402752185 1.4233691002 0.00010254103303 1.6240452325 
0.29713730397 1.1054763464 0.89520073169 0.00031385599938 1.1358046096 0.26239466497 6.3128530845e-10 1.4410080072 1.8249787695 
0.32285961529 1.3782210528 1.1497623184 1.1213537935 1.5230069212 1.1695635291 0.070515274798 0.917862101 1.476118129 
1.3282662285 1.488009876 0.54528707701 0.78017811846 0.57666762815 1.1441066027 2.7110163737e-05 0.2333393723 0.026993904448 
1.5887272427 0.83568880986 0.83260546352 3.3206321284e-07 2.4096440238e-05 1.2175825926 0.10190334098 1.172952321 1.5896008708 
0.44644521292 1.2522365284 1.1534714535 0.49741210849 0.10043499895 1.2935063702 1.462829165 0.9170733457 1.6552778192 
1.2293245126 1.6777060534 1.4900130101 1.2740307096 0.00032699346803 0.00020999319475 1.0216583958 1.1488250543 1.5434244934 
1.3066012411 1.0918598212 1.4220254895 1.0281329747 0.091529609648 0.93736885764 2.030085637e-05 0.90303657284 0.00033484683824 
1.0658235009 1.1062277116 0.96216946843 1.3075299459 0.13063349466 0.20708137324 1.0998375205 0.76781038672 0.79529177269 
1.1985040673 0.15543990727 0.14991013522 1.383195722 0.81375181359 0.78884961861 1.3404306327 0.92506167768 0.0089595500588 
0.077530150512 0.87732839324 0.0056305233232 0.87191587874 1.532894002 1.032190709 0.66227947505 0.00044008927773 1.7155837855 
0.15550281837 1.3298601218 1.629085241 0.17940867392 0.79721338427 0.83157803181 0.2983370281 0.021986774162 1.084122625 
0.098201860501 1.476032045 0.78149054294 0.84383358185 0.85789406517 0.57430507109 2.2492790245e-06 1.3552680779 0.29325698936 
0.79173555998 0.97804805479 0.55159184793 1.2119006596 0.15128380259 1.2200825636 0.0014316739219 0.81791451319 0.77609586061 
0.62538277394 0.95352004946 0.00070673812106 0.77569129057 0.87444792939 1.101244968 1.6385365766 0.37277462352 0.093954223021 
1.2036109899 0.25752134593 0.74497454392 0.90733684402 0.69781053962 0.7893111677 1.2302258653 1.4389537759 1.678030354 
1.069992136 1.3509676232 0.002662148398 1.7145675112 0.71421955082 1.0029498702 0.85237450278 6.0005065455e-05 0.99925040741 
1.7447203816 0.79733451615 0.041752215301 1.1877672726 0.0014206811962 0.10180393624 1.2728560672 0.7485833979 0.81456950846 
1.356476237 0.79807619894 0.023543439113 0.10195155387 6.3186570952e-09 1.6158056786e-10 1.5085763668 0.068841698066 0.74195831025 
0.8316709826 1.3529911593 0.74474583853 1.2722746471 1.6703143776 1.0261276504 1.7074872059 1.5494911333 1.0376500426 
0.017879437481 1.3892390397 1.2948462667 1.1591694787 0.89716140786 0.98028078229 1.3537414565 0.0093866261287 0.81711771953 
1.6696701587 0.046999920685 1.5404889859 3.1252685152e-10 0.83644400971 0.57928825682 0.011969962915 0.92179938848 0.00065935272097 
0.81575291884 1.0349397452 1.301458711 0.82078011574 1.1818205094 1.1130201951 1.5774134955 0.075820021208 0.95245811457 
1.0269532103 0.72648742971 1.7306975871 0.023159585033 0.94794634939 0.55553000684 0.95534027258 0.52751821279 0.10303371156 
0.9767751563 0.36470146836 0.38770674971 0.015007107926 0.87454525847 0.78107784064 0.9223074989 1.6578144484 1.5294530884 
0.0018213377632 1.077848572 0.39752743742 0.74056341706 1.4258064746 1.3520689112 1.0037911976 1.504289492 0.30906244714 
0.00069579901627 0.00017097472033 0.81920932156 1.200729138 1.3663020147 0.0002706793371 0.75811113564 0.99228701998 1.4156692496 
1.5668045436 0.95184123533 4.0082184936e-06 1.2872654515 0.79522376699 1.266809933 0.075891688391 1.3828743914 0.086566267146 
0.0089442772232 2.690841084e-05 6.4054236839e-05 1.6176417362 0.0044834475299 0.20873485906 1.6025299255 1.2815618748 0.94150775272 
0.38797374452 1.3414645073 0.85967590809 1.6605113973 0.85387439727 9.5096110026e-06 1.2326702433 1.2491237943 1.6490888316e-05 
0.030941061418 0.93994051893 1.0040844618 1.4437428846 1.0597125408 2.5379348987e-09 0.88111881642 0.5515921519 1.2022937225 
0.90458675505 0.10908145308 1.4455826806 1.4625458183 1.0350434694 0.64281169812 0.26201460813 0.015280141668 0.12609217711 
0.90909296452 0.041738704534 0.26866900283 0.81281801765 0.039965864934 0.56410853889 0.00012950488793 0.013598197782 0.011773587305 
0.72541835763 1.3315443436 2.6929114497e-05 0.21758842077 0.99351810793 1.4880340795 0.87380508576 0.79787801198 0.91305983719 
1.2959166193 1.3091654893 1.4335996298 0.67399456173 1.4135534157 1.356009122 1.1707243397 1.4039949632 0.11153166946 
1.0670325097 0.003492401182 1.2323958865 1.8206916676 0.86458526629 0.86428668007 1.6577317241 1.1491264365 0.00026614714213 
0.0086588708634 1.2318049753 1.2615420425 1.8245178007 0.077247304078 0.002330299909 0.7789939427 0.00033504135831 1.3556352789 
0.064856913171 0.11029597665 4.3639065689e-09 0.87457776349 1.7885631299 1.2283903602e-07 0.028283774145 0.81623522177 0.30602895635 
1.5242014526 1.008610716 0.77377672775 0.00015064723829 3.8561114829e-07 0.00015073460927 1.2883653222 6.6343908765e-05 1.3203926586 
0.86070799904 1.6452216459 0.89222050476 1.06018378 0.720257174 0.94540068133 0.73053337002 0.9161903455 0.72416367531 
1.2124099482 1.0314186858 0.8245368165 0.00067680840982 0.54007277743 0.92504223542 8.4121455916e-05 1.4524963659 0.34688580592 
4.0272462595e-05 0.17698905641 0.003034089414 0.0013177247327 1.72005939 0.8721583797 1.1634016262 0.61352274255 0.30342363987 
0.014823395845 0.39375359586 0.076547465618 0.052424152235 0.72215468102 0.64495836872 0.087021887692 0.12063733742 0.79366072092 
0.86467167571 0.35660382999 0.042632369287 0.27130241802 0.0012899864486 0.71933637362 2.7192342616e-05 1.0290622649 0.21767923286 
0.96822658554 1.1248599893 0.53459335471 1.0615228759 2.0440064129 0.11117652424 0.85898228561 0.022076578222 1.200158101 
1.1941593314 0.00064812410309 0.9915068699 1.6678238295 1.5038760423 1.1960580286 0.75531360264 1.4309596873 1.9597975751 
1.3379763391 1.4687734475 1.1385011848 0.84761008258 1.5290463173 0.1143712185 0.81459808643 0.7035311552 0.22933177888 
1.1587902049 6.785318009e-05 0.9931545726 1.0651903233 0.19501665078 0.17707735397 0.87263254992 0.81629347245 0.00041772964236 
0.06479565271 0.77826277497 0.86563604019 1.7356788212 0.049403389895 0.31031943972 1.1861634636 0.062930096645 1.5038372811 
1.6485530574e-05 1.3380902265 0.49499675518 0.8367062641 0.5901321608 6.5778292773e-05 0.8077775698 1.6332590571 1.5247684035 
0.56739558965 0.23930757323 0.93387345875 0.10134886119 1.1672536097 1.5141397698 0.75837228487 0.1225253055 1.4855819658 
0.91581318865 1.2717772589 1.3430501271 0.83108103524 0.00084587595781 0.77524070967 0.92510346275 1.1975138271 0.6210385278 
0.9850883076 1.01019953 1.4102986794 0.66360476619 0.88186915278 6.0009578352e-06 1.5669147502 1.0440730838 0.45295597044 
0.27119160559 0.75289883814 0.61152771206 0.92396466601 0.50769261966 0.25443488024 0.027948618394 1.499959712 0.00013897130152 
0.015684076378 0.57996473384 0.0010615389196 0.66740756638 0.65644054171 0.28561549857 0.00015092303016 0.010482764831 0.028410788129 
0.002983003293 0.00013359033306 1.2366721575 2.0292326397 1.4405954082 0.76626100074 1.2307380908 0.9824030428 1.732926832 
1.3557894981 1.4324564888 0.071587588544 0.80885354585 0.89026521363 0.00022577697477 0.13354688594 1.1503871939 0.73411926701 
1.1132091985 3.134155995e-10 1.0657419128e-08 0.16254463098 1.3224227359 0.83082946651 1.2889101073 0.84402753847 1.0968727456 
1.4404912551 1.1171673587 1.1501602541 0.61318768832 0.80474385335 0.48858137831 0.83261041599 0.74248315807 0.85627185931 
0.8929300671 0.6075641827 0.78004250079 0.51401733469 0.84379722986 1.4359916114 0.57859337014 1.6430325198 0.13261908441 
1.3588225433 1.6380860953 0.84524202453 0.87225102807 0.98936610947 0.23915535474 0.79085268364 0.77845285759 0.4970942142 
0.89910970431 0.89797367777 0.029092709813 1.3769783555 9.4749627792e-11 1.0113419235 0.45227436811 0.57933767948 1.0208902919 
1.0167091675 1.5878027734 0.79014068088 0.79905348175 1.1398257142 0.9781219629 0.22358654833 0.47345079282 0.37182210403 
0.006132108502 0.58512632358 0.12712199863 0.003110358751 0.72430302811 1.5223814987 0.0012066170604 1.2369307942 0.9099552958 
1.4254192354 0.82339903311 1.5754196121 1.429644225 2.5681951578e-06 6.6248441968e-05 0.46903605077 7.8632204752e-05 1.1503115343 
0.86951513346 0.040355455014 0.85043319074 1.0151371442 0.31017402508 0.54102922609 0.76990265685 1.2698142068 0.017218010141 
1.0633927404 1.2517784815 0.062687647177 0.75512861187 0.83833103297 5.1590285962e-05 0.91639059695 0.014838047464 1.2714064158 
1.2876103786 0.68103858491 0.0075607747447 1.1502331665 0.50315979531 0.73277053534 2.1403512161 3.5117881612e-08 1.9689266612 
1.4828627179 0.2682298194 1.3343734856 0.015677195043 0.86685703419 1.0702472694 0.89084417024 0.93219991973 0.94029716541 
0.75748057577 0.80915983826 1.4063697809 1.0250399855 1.7211657489 0.59588663975 0.75804849252 0.858888329 1.2889519149 
0.7130542142 0.9134940883 1.2043367215 0.16858454662 0.89569402075 0.024455686373 1.1374865906 0.3399387105 0.11632085891 
0.11011380712 0.84765426602 0.78844544106 1.0209283359 1.1003417739 0.48204000427 5.6157737005e-05 1.5331712962 6.9553066875e-07 
1.5648563704 0.79926914166 0.72893714014 0.6604979897 0.65320275164 0.71483403146 0.95451682142 1.0059303656 0.5448367127 
0.082185275031 0.14097078382 0.075306953803 0.82966861414 0.64680767861 1.390492155 0.48017899823 0.14983611282 0.19176018851 
0.014824475032 0.39930710689 1.1832843272 1.2283673489 0.63448797679 0.62546930649 7.5832876488e-06 0.00035438156756 0.12183299458 
0.91336204998 1.6379573313 1.3855314637 2.3541917927e-08 1.2039518072 1.4622362968 0.16059477163 0.0049539204353 1.2155261622 
1.2156285687 0.050960897724 1.3476638036 1.5291729849 1.2862418279 1.0288980757 0.018355482403 0.0028261801964 2.5381720326e-07 
0.51678153742 1.7603609317 2.169497228 0.86566803665 0.24637252571 0.92006635584 0.90552234788 0.19475303729 0.23349117098 
0.40779149186 0.3037529354 0.39063426889 0.75975231182 0.88307123235 0.0036473782827 0.70145771269 0.0091226012916 1.0557013588 
0.21911056902 1.2100389381 0.33998590352 1.0251669225 1.6389322822 0.00044286781509 1.117840519 0.83247372157 0.15074812444 
1.6572001117 0.59593266117 0.94465841616 0.77371420283 2.2681526643 0.28300334003 1.4187535648 0.12359315284 0.17683702058 
0.70779799898 0.86099765847 0.81113798008 0.7642580479 1.0153144044 0.88939557143 0.17464895322 1.2774112355 0.033812372111 
1.2472378036e-05 1.3101476912 0.4975965604 0.00079159479567 0.00010617881039 5.2056685838e-06 7.3822021632e-05 0.019947761007 1.7261435804 
0.99162327465 7.6542344516e-05 0.12500211839 0.17747173305 0.61296947146 1.1825504577 0.012196725724 3.1964627058e-08 0.0082339473315 
2.3501558924 0.76897017265 0.045972079581 1.1331878754 0.7002454796 0.87529452464 0.26410453384 1.0422495896 0.83637076269 
0.0062167625032 0.01922573305 0.00082834846112 1.2383233184 2.1942478921 1.2583749115 0.082007413297 2.272052991 0.19080113155 
0.0028143538509 0.049702344675 0.026766105363 0.13270553398 0.99270046156 0.74418764335 1.0799044466 1.1727256525 5.6422954313e-08 
0.87490126785 0.99937091197 1.2151780182 1.1498698096 0.0063382141288 1.6003813251 0.022300781261 0.71553232292 0.24257588455 
0.9566863067 4.9002868025e-05 7.4580086009e-06 0.75970508329 0.14854557686 0.75222024359 0.40728659175 1.4109928026 1.1079888429 
0.18759908081 0.80882531148 1.1238127296 0.37579523199 0.81078408499 0.84579874443 0.00012032461694 1.1800073868 1.0855982962 
1.4544649197 1.5264425418 0.047387152625 0.82597342662 0.019065764692 0.16015033459 0.38649616055 0.7593046363 1.3370638634e-05 