# vtk DataFile Version 4.2
vtk output
ASCII
DATASET UNSTRUCTURED_GRID
POINTS 4342 double
-0.6 -0.6 0 0.6 -0.6 0 0.6 0.6 0 
-0.6 0.6 0 0 0 0 -0.58 -0.6 0 
-0.56 -0.6 0 -0.54 -0.6 0 -0.52 -0.6 0 
-0.5 -0.6 0 -0.48 -0.6 0 -0.46 -0.6 0 
-0.44 -0.6 0 -0.42 -0.6 0 -0.4 -0.6 0 
-0.38 -0.6 0 -0.36 -0.6 0 -0.34 -0.6 0 
-0.32 -0.6 0 -0.3 -0.6 0 -0.28 -0.6 0 
-0.26 -0.6 0 -0.24 -0.6 0 -0.22 -0.6 0 
-0.2 -0.6 0 -0.18 -0.6 0 -0.16 -0.6 0 
-0.14 -0.6 0 -0.12 -0.6 0 -0.1 -0.6 0 
-0.08 -0.6 0 -0.06 -0.6 0 -0.04 -0.6 0 
-0.02 -0.6 0 -8.881784197e-16 -0.6 0 0.02 -0.6 0 
0.04 -0.6 0 0.06 -0.6 0 0.08 -0.6 0 
0.1 -0.6 0 0.12 -0.6 0 0.14 -0.6 0 
0.16 -0.6 0 0.18 -0.6 0 0.2 -0.6 0 
0.22 -0.6 0 0.24 -0.6 0 0.26 -0.6 0 
0.28 -0.6 0 0.3 -0.6 0 0.32 -0.6 0 
0.34 -0.6 0 0.36 -0.6 0 0.38 -0.6 0 
0.4 -0.6 0 0.42 -0.6 0 0.44 -0.6 0 
0.46 -0.6 0 0.48 -0.6 0 0.5 -0.6 0 
0.52 -0.6 0 0.54 -0.6 0 0.56 -0.6 0 
0.58 -0.6 0 0.6 -0.58 0 0.6 -0.56 0 
0.6 -0.54 0 0.6 -0.52 0 0.6 -0.5 0 
0.6 -0.48 0 0.6 -0.46 0 0.6 -0.44 0 
0.6 -0.42 0 0.6 -0.4 0 0.6 -0.38 0 
0.6 -0.36 0 0.6 -0.34 0 0.6 -0.32 0 
0.6 -0.3 0 0.6 -0.28 0 0.6 -0.26 0 
0.6 -0.24 0 0.6 -0.22 0 0.6 -0.2 0 
0.6 -0.18 0 0.6 -0.16 0 0.6 -0.14 0 
0.6 -0.12 0 0.6 -0.1 0 0.6 -0.08 0 
0.6 -0.06 0 0.6 -0.04 0 0.6 -0.02 0 
0.6 -8.881784197e-16 0 0.6 0.02 0 0.6 0.04 0 
0.6 0.06 0 0.6 0.08 0 0.6 0.1 0 
0.6 0.12 0 0.6 0.14 0 0.6 0.16 0 
0.6 0.18 0 0.6 0.2 0 0.6 0.22 0 
0.6 0.24 0 0.6 0.26 0 0.6 0.28 0 
0.6 0.3 0 0.6 0.32 0 0.6 0.34 0 
0.6 0.36 0 0.6 0.38 0 0.6 0.4 0 
0.6 0.42 0 0.6 0.44 0 0.6 0.46 0 
0.6 0.48 0 0.6 0.5 0 0.6 0.52 0 
0.6 0.54 0 0.6 0.56 0 0.6 0.58 0 
0.58 0.6 0 0.56 0.6 0 0.54 0.6 0 
0.52 0.6 0 0.5 0.6 0 0.48 0.6 0 
0.46 0.6 0 0.44 0.6 0 0.42 0.6 0 
0.4 0.6 0 0.38 0.6 0 0.36 0.6 0 
0.34 0.6 0 0.32 0.6 0 0.3 0.6 0 
0.28 0.6 0 0.26 0.6 0 0.24 0.6 0 
0.22 0.6 0 0.2 0.6 0 0.18 0.6 0 
0.16 0.6 0 0.14 0.6 0 0.12 0.6 0 
0.1 0.6 0 0.08 0.6 0 0.06 0.6 0 
0.04 0.6 0 0.02 0.6 0 8.881784197e-16 0.6 0 
-0.02 0.6 0 -0.04 0.6 0 -0.06 0.6 0 
-0.08 0.6 0 -0.1 0.6 0 -0.12 0.6 0 
-0.14 0.6 0 -0.16 0.6 0 -0.18 0.6 0 
-0.2 0.6 0 -0.22 0.6 0 -0.24 0.6 0 
-0.26 0.6 0 -0.28 0.6 0 -0.3 0.6 0 
-0.32 0.6 0 -0.34 0.6 0 -0.36 0.6 0 
-0.38 0.6 0 -0.4 0.6 0 -0.42 0.6 0 
-0.44 0.6 0 -0.46 0.6 0 -0.48 0.6 0 
-0.5 0.6 0 -0.52 0.6 0 -0.54 0.6 0 
-0.56 0.6 0 -0.58 0.6 0 -0.6 0.58 0 
-0.6 0.56 0 -0.6 0.54 0 -0.6 0.52 0 
-0.6 0.5 0 -0.6 0.48 0 -0.6 0.46 0 
-0.6 0.44 0 -0.6 0.42 0 -0.6 0.4 0 
-0.6 0.38 0 -0.6 0.36 0 -0.6 0.34 0 
-0.6 0.32 0 -0.6 0.3 0 -0.6 0.28 0 
-0.6 0.26 0 -0.6 0.24 0 -0.6 0.22 0 
-0.6 0.2 0 -0.6 0.18 0 -0.6 0.16 0 
-0.6 0.14 0 -0.6 0.12 0 -0.6 0.1 0 
-0.6 0.08 0 -0.6 0.06 0 -0.6 0.04 0 
-0.6 0.02 0 -0.6 8.881784197e-16 0 -0.6 -0.02 0 
-0.6 -0.04 0 -0.6 -0.06 0 -0.6 -0.08 0 
-0.6 -0.1 0 -0.6 -0.12 0 -0.6 -0.14 0 
-0.6 -0.16 0 -0.6 -0.18 0 -0.6 -0.2 0 
-0.6 -0.22 0 -0.6 -0.24 0 -0.6 -0.26 0 
-0.6 -0.28 0 -0.6 -0.3 0 -0.6 -0.32 0 
-0.6 -0.34 0 -0.6 -0.36 0 -0.6 -0.38 0 
-0.6 -0.4 0 -0.6 -0.42 0 -0.6 -0.44 0 
-0.6 -0.46 0 -0.6 -0.48 0 -0.6 -0.5 0 
-0.6 -0.52 0 -0.6 -0.54 0 -0.6 -0.56 0 
-0.6 -0.58 0 0.25 -0.58267949192 0 -0.25 -0.58267949192 0 
-0.24969338163 0.58271630631 0 0.58313820224 0.25089999788 0 -0.58073798855 0.23055415423 0 
0.23 0.58267949192 0 0.5822727489 -0.23023532651 0 -0.58232885758 -0.22986293355 0 
-0.13 -0.58267949192 0 0.58091085312 0.12866705289 0 -0.13050081 0.58443309409 0 
0.13 -0.58267949192 0 0.11 0.58267949192 0 0.58128887437 -0.11185352307 0 
-0.58641004823 0.11046978504 0 -0.58097603768 -0.11235367818 0 -0.01 0.5841811861 0 
0.01 -0.58267949192 0 0.58217507245 0.011050809949 0 -0.58206506685 -0.010494327869 0 
0.58255589861 -0.33012459525 0 -0.58098267687 0.33246863147 0 0.33 0.58267949192 0 
-0.58090018381 -0.32734039494 0 0.35 -0.58267949192 0 0.58210978525 0.34851718814 0 
-0.34984356206 0.58269328777 0 -0.35 -0.58267949192 0 -0.58404031657 -0.41125547479 0 
0.58404031657 -0.41125547479 0 0.41 0.58267949192 0 -0.58127371569 0.40748932397 0 
0.43 -0.58267949192 0 0.58287041801 0.42966930632 0 -0.43030661837 0.58271630631 0 
-0.43 -0.58267949192 0 0.49 0.58267949192 0 0.58119455181 -0.49272606834 0 
-0.58196591894 0.48785347999 0 -0.58132747275 -0.49216380446 0 0.58099079541 0.19297246443 0 
-0.18926154554 0.58413656679 0 0.05 0.58267949192 0 0.19 -0.58267949192 0 
-0.07 -0.58267949192 0 0.58212565717 -0.051217328366 0 -0.07 0.58267949192 0 
0.58245912871 0.070013739955 0 0.07 -0.58267949192 0 0.58168449499 -0.17128271923 0 
-0.58574378526 0.05125913651 0 0.17050081 0.58443309409 0 -0.58168449499 -0.17128271923 0 
-0.58573295936 0.16883725031 0 -0.19 -0.58267949192 0 0.49 -0.58267949192 0 
-0.49050081 0.58443309409 0 0.58415322569 0.48921568047 0 -0.49 -0.58267949192 0 
0.53 -0.58267949192 0 0.58203286059 0.53119351335 0 -0.53 0.58267949192 0 
-0.58222913959 -0.53018403998 0 0.58202539473 0.28969699417 0 -0.29 0.58267949192 0 
-0.58451963751 -0.45057023735 0 -0.58267949192 -0.07 0 -0.29 -0.58267949192 0 
-0.03 -0.58267949192 0 0.39 -0.58267949192 0 0.58307204747 0.39068583015 0 
-0.39 0.58373814012 0 0.29 -0.58267949192 0 0.58208722445 -0.45065236781 0 
0.45042926572 0.58129593389 0 -0.58211115223 0.44955595746 0 -0.58432719917 -0.36932980655 0 
-0.58406793967 -0.26883049013 0 0.5820526686 -0.36901719046 0 0.37 0.58267949192 0 
-0.5823078615 0.36998422007 0 -0.39 -0.58267949192 0 -0.58211498987 0.271305057 0 
-0.53 -0.58267949192 0 0.58222913959 -0.53018403998 0 0.53 0.58373814012 0 
-0.58219774606 0.53090792334 0 0.58030324732 -0.28813008885 0 0.29050081 0.58443309409 0 
-0.58188605505 -0.56816348762 0 0.56922649731 -0.58312607391 0 0.58067979276 0.57009350437 0 
-0.57009384201 0.58146184644 0 0.54987108288 -0.58275392226 0 0.53997851381 -0.5653713889 0 
0.51999641897 -0.56536105136 0 0.52999582213 -0.54804088787 0 0.50999870685 -0.54803922237 0 
0.51999908816 -0.53071849415 0 0.4999996325 -0.53071817987 0 0.50999978678 -0.51339758273 0 
0.48999990321 -0.5133975155 0 0.49999994833 -0.49607698138 0 0.47999997526 -0.49607696583 0 
0.48999998726 -0.47875645082 0 0.46999999375 -0.47875644708 0 0.47999999684 -0.46143593722 0 
0.45999999843 -0.4614359363 0 0.46999999921 -0.44411542777 0 0.44999999961 -0.44411542755 0 
0.4599999998 -0.42679491936 0 0.4399999999 -0.4267949193 0 0.44999999995 -0.4094744112 0 
0.42999999998 -0.40947441118 0 0.43999999999 -0.3921539031 0 0.41999999999 -0.3921539031 0 
0.43 -0.37483339502 0 0.41 -0.37483339502 0 0.42 -0.35751288694 0 
0.4 -0.35751288694 0 0.41 -0.34019237886 0 0.39 -0.34019237886 0 
0.4 -0.32287187079 0 0.38 -0.32287187079 0 0.39 -0.30555136271 0 
0.37 -0.30555136271 0 0.38 -0.28823085464 0 0.36 -0.28823085464 0 
0.37 -0.27091034656 0 0.35 -0.27091034656 0 0.36 -0.25358983849 0 
0.34 -0.25358983849 0 0.35 -0.23626933041 0 0.33 -0.27091034656 0 
0.32 -0.25358983849 0 0.31 -0.27091034656 0 0.3 -0.25358983849 0 
0.29 -0.27091034656 0 0.28 -0.25358983849 0 0.27 -0.27091034656 0 
0.26 -0.25358983849 0 0.25 -0.27091034656 0 0.27 -0.23626933041 0 
0.24 -0.25358983849 0 0.23 -0.27091034656 0 0.22 -0.25358983849 0 
0.21 -0.27091034656 0 0.2 -0.25358983849 0 0.19 -0.27091034656 0 
0.18 -0.25358983849 0 0.17 -0.27091034656 0 0.19 -0.23626933041 0 
0.16 -0.25358983849 0 0.15 -0.27091034656 0 0.14 -0.25358983849 0 
0.13 -0.27091034656 0 0.12 -0.25358983849 0 0.11 -0.27091034656 0 
0.1 -0.25358983849 0 0.09 -0.27091034656 0 0.08 -0.25358983849 0 
0.07 -0.27091034656 0 0.06 -0.25358983849 0 0.05 -0.27091034656 0 
0.04 -0.25358983849 0 0.03 -0.27091034656 0 0.02 -0.25358983849 0 
0.01 -0.27091034656 0 -1.7474921972e-14 -0.25358983849 0 -0.01 -0.27091034656 0 
-0.02 -0.25358983849 0 -0.03 -0.27091034656 0 -0.04 -0.25358983849 0 
-0.05 -0.27091034656 0 -0.06 -0.25358983849 0 -0.07 -0.27091034656 0 
-0.08 -0.25358983849 0 -0.09 -0.27091034656 0 -0.1 -0.25358983849 0 
-0.11 -0.27091034656 0 -0.12 -0.25358983849 0 -0.13 -0.27091034656 0 
-0.14 -0.25358983849 0 -0.15 -0.27091034656 0 -0.16 -0.25358983849 0 
-0.17 -0.27091034656 0 -0.18 -0.25358983849 0 -0.19 -0.27091034656 0 
-0.2 -0.25358983849 0 -0.21 -0.27091034656 0 -0.22 -0.25358983849 0 
-0.21 -0.23626933041 0 -0.23 -0.23626933041 0 -0.22 -0.21894882233 0 
-0.23 -0.27091034656 0 -0.24 -0.21894882233 0 -0.23 -0.20162831426 0 
-0.25 -0.20162831426 0 -0.24 -0.18430780618 0 -0.26 -0.18430780618 0 
-0.25 -0.16698729811 0 -0.27 -0.16698729811 0 -0.26 -0.14966679003 0 
-0.27 -0.20162831426 0 -0.28 -0.14966679003 0 -0.27 -0.13234628196 0 
-0.29 -0.13234628196 0 -0.28 -0.11502577388 0 -0.3 -0.11502577388 0 
-0.29 -0.097705265805 0 0.22 -0.28823085464 0 0.1 -0.28823085464 0 
-0.1 -0.28823085464 0 -0.22 -0.28823085464 0 -0.24 -0.28823085464 0 
0.02 -0.28823085464 0 -0.31 -0.13234628196 0 -0.31 -0.097705265805 0 
-0.3 -0.080384757729 0 -0.28 -0.080384757729 0 -0.29 -0.063064249654 0 
-0.31 -0.063064249654 0 -0.3 -0.045743741578 0 -0.28 -0.045743741578 0 
-0.29 -0.028423233502 0 -0.27 -0.028423233502 0 -0.28 -0.011102725427 0 
-0.3 -0.011102725427 0 -0.29 0.0062177826491 0 -0.27 0.0062177826491 0 
-0.28 0.023538290725 0 -0.26 0.023538290725 0 -0.27 0.0408587988 0 
-0.25 0.0408587988 0 -0.26 0.058179306876 0 -0.24 0.058179306876 0 
-0.25 0.075499814952 0 -0.23 0.075499814952 0 -0.24 0.092820323028 0 
-0.22 0.092820323028 0 -0.23 0.1101408311 0 -0.21 0.1101408311 0 
-0.22 0.12746133918 0 -0.2 0.12746133918 0 -0.21 0.14478184725 0 
-0.19 0.14478184725 0 -0.2 0.16210235533 0 -0.18 0.16210235533 0 
-0.19 0.17942286341 0 -0.17 0.17942286341 0 -0.21 0.17942286341 0 
-0.2 0.19674337148 0 -0.22 0.19674337148 0 -0.21 0.21406387956 0 
-0.23 0.21406387956 0 -0.22 0.23138438763 0 -0.24 0.23138438763 0 
-0.23 0.24870489571 0 -0.21 0.24870489571 0 -0.25 0.24870489571 0 
-0.27 0.075499814952 0 -0.22 0.26602540378 0 -0.2 0.26602540378 0 
-0.21 0.28334591186 0 -0.19 0.28334591186 0 -0.31 0.0062177826491 0 
-0.23 -0.16698729811 0 0.11 -0.23626933041 0 -0.2 0.30066641994 0 
-0.18 0.30066641994 0 -0.23 -0.30555136271 0 -0.25 -0.30555136271 0 
0.39 -0.37483339502 0 -0.09 -0.23626933041 0 -0.19 0.31798692801 0 
[...]
CELL_DATA 8442
FIELD FieldData 1
flux 1 8442 double
6.1417613264e-61 9.8949042747e-40 3.4716481557e-35 3.0077952204e-21 4.6006553838e-22 2.4480393292e-61 7.0050110819e-29 1.1229410242e-33 8.4152944171e-20 
1.3639709846e-23 3.9112716812e-41 9.5784981379e-43 3.2956087449e-28 3.4213124134e-28 7.9876325056e-72 3.2968322991e-40 7.4822984041e-52 6.4670976479e-21 
2.7998485841e-45 1.1085393536e-30 1.131239545e-26 8.1209248008e-72 3.4525294872e-64 6.6720941327e-59 7.6197120367e-38 3.3063576854e-64 8.1085577117e-56 
7.7611838596e-39 1.6203929557e-42 2.3974673112e-22 1.0913130745e-42 1.6754741701e-49 3.1628250165e-23 3.0993852337e-23 1.1422352209e-21 1.0508981772e-26 
1.0444911458e-26 5.5924274553e-23 3.8451674636e-31 4.0211686816e-31 8.8877739847e-39 7.3849618518e-74 3.7863815125e-50 1.7802643432e-19 1.8157066357e-34 
6.4129551257e-34 5.2336410252e-34 7.1056553459e-70 7.1553223951e-70 2.5944929538e-45 3.4842959801e-37 6.3909452967e-45 2.6745737091e-67 2.5018654429e-67 
2.3735269891e-45 1.5148605132e-23 7.9813357808e-47 3.7461325014e-25 9.0957477674e-25 8.7542047298e-25 4.38521673e-23 6.8169696241e-228 1.3892118086e-20 
1.1246726616e-118 3.9514994419e-57 3.6522956039e-41 5.6397793383e-51 2.6414425361e-75 3.3965297423e-139 8.3736387965e-31 6.9341076389e-31 3.4670499471e-56 
3.0995682087e-37 1.1838698986e-120 7.4993363576e-39 2.6940160332e-62 8.2110505093e-21 1.3113193744e-19 1.4724154576e-29 1.5232533773e-29 4.8337566549e-23 
2.3225343438e-22 2.7284309554e-61 2.4361200738e-32 3.2846572232e-34 9.3039764109e-29 2.8364272202e-27 6.6596177639e-70 6.8202804429e-70 2.1222505548e-125 
2.1222505548e-125 7.9518654273e-38 3.9244712838e-20 2.362204405e-49 2.3468128079e-49 1.8717283976e-21 1.7799202984e-22 2.6274935459e-31 2.5642092416e-31 
7.4507665244e-43 9.1349384993e-82 7.958679751e-39 5.7851675503e-36 2.5334050629e-36 4.5740085996e-54 5.79111785e-36 3.8628445269e-45 1.2785660339e-21 
6.7870409736e-68 6.6940365587e-68 7.7414978811e-73 1.003145348e-46 2.5902064502e-64 2.4869501198e-64 1.8949419733e-59 1.0324746822e-54 1.0475942986e-19 
9.7806245979e-32 5.9437580132e-28 6.1811621305e-28 1.935869352e-19 4.4931326673e-41 1.664922232e-19 1.3210529181e-30 1.3543764454e-30 2.9618601743e-26 
1.9382994094e-28 1.9470604015e-28 2.3682945945e-21 6.1693093805e-24 2.0963155615e-37 5.2377456221e-33 5.5340175113e-76 1.3121538375e-43 2.1776922918e-24 
4.5550758294e-45 1.7131671691e-59 4.3733423323e-52 4.3068620812e-52 3.0865943772e-41 2.2185195477e-24 31.007585913 31.001176874 3.9785092891e-21 
6.3546717877e-30 6.1648413001e-30 1.1880112442e-72 2.4725546455e-41 1.1002275811e-27 2.7261172464e-37 2.4005449055e-19 8.8396398345e-47 3.3306282093e-45 
3.6625577487e-66 3.777152709e-66 6.2888795572e-66 1.4238614525e-64 3.5939833275e-22 8.3153197703e-34 8.352709656e-48 8.702821538e-48 7.386656305e-24 
1.2767028588e-64 1.2738708166e-64 2.4190581123e-37 4.3596688107e-51 2.3285527763e-62 5.2207026027e-41 2.488598175e-22 8.6923394658e-21 4.2160240305e-59 
3.5289059303e-35 3.2226585198e-20 31.054245004 31.05144679 1.046518945e-62 31.111952787 31.105722177 9.1843787142e-32 1.0224562065e-62 
1.511491855e-46 2.1759795115e-27 2.1405850839e-27 6.6197578156e-78 5.8747218205e-21 1.2028239283e-39 2.6578591127e-78 1.2081860284e-43 2.8633629125e-55 
1.2790122479e-59 3.4996306926e-73 3.5220761784e-73 1.9737978015e-45 1.2113185081e-59 8.2797987071e-58 4.4034086678e-49 1.0382955875e-41 4.274669488e-36 
2.1318900793e-57 3.2203728807e-30 9.9826002385e-40 3.1597725087e-36 3.518549715e-24 1.9508826152e-27 1.5295077023e-28 1.7350293521e-23 1.1539724426e-27 
7.4610222093e-25 3.8308844335e-25 5.1682794154e-28 3.2898151377e-28 7.9703527255e-25 8.3000274734e-29 9.7421523824e-28 5.9108729057e-27 2.9347009801e-33 
5.4856255496e-25 1.4275335152e-25 2.435284475e-52 1.1117992146e-25 3.8466084747e-63 1.275178778e-56 1.5346400239e-56 1.7924493759e-53 3.2408215688e-58 
6.1805483186e-38 1.4187649497e-28 0.0018090738132 0.00028096581282 0.0010079873007 0.00053807624006 0.001994228165 8.0589453296e-18 0.00057977992933 
9.0483844947e-41 4.3676679607e-34 3.9066733581e-24 8.2586047577e-20 7.0792350703e-19 0.00013327804886 0.0004301687806 0.00050926369333 0.0014249161069 
2.7652908383e-06 0.010726128532 0.00061588750721 6.7267824326e-26 0.00020177580264 2.1702026943e-38 0.00074631167766 4.8173608256e-32 9.4152743259e-07 
5.3341095958e-14 6.548418462e-38 4.351349267e-15 2.1251106171e-22 6.0343576048e-11 3.927011618e-21 3.5731365733e-36 3.6715753196e-43 6.3761181017e-13 
2.9303415611e-55 0.00027705982597 0.00099233211648 0.00058341423368 2.7556617512e-16 2.7844288669e-21 0.00034870857664 1.0775644537e-19 0.00040509388071 
6.5071771262e-12 5.271885747e-31 1.548968494e-15 0.0012088739854 3.0144248374e-21 3.5597172574e-05 0.0013577227431 1.215323285e-35 1.0485558314e-65 
2.3439529153e-68 4.2033610669e-06 1.4956847611e-30 4.2143033462e-29 3.4044232853e-12 0.00043618843095 2.7821815524e-07 3.2106319031e-39 1.064104772e-09 
5.0730829612e-11 1.4921236216e-16 6.5311191319e-12 0.00014629430295 2.5435068912e-06 1.2014936163e-27 7.649640181e-06 5.1200285759e-17 0.0014107809461 
0.0010345313776 3.1280546453 4.4219231362 1.0325790345e-63 0.00016653378953 1.4618521751e-17 0.18774854472 3.2595575433e-05 8.3783054946e-06 
2.5040174416e-10 6.7753736419e-19 2.1335787452e-11 1.0820758902e-37 0.0032753268786 1.4917034987e-22 4.680750471e-10 4.6236717501e-18 7.2866347601 
1.8719161206e-10 2.5511547742e-06 8.6251135092e-07 4.2017882922e-05 1.1939799213e-15 1.8223219429e-15 1.7650092735e-18 0.003557972075 7.9706358275e-05 
8.9782672985e-18 7.5278934615e-09 3.1618462138e-05 0.0011741104764 5.1703004454 8.1736966526e-19 6.1948157489 0.0020725673585 1.9289811083e-18 
6.9753213537e-08 2.1963240036e-09 1.2246007601e-16 6.4301456021 2.7457046191e-10 4.9941281885 3.5553729281 6.1955949858e-13 2.6350481566 
3.6413108435e-17 7.4593812932 0.0016328350045 7.597196271 5.9218995543 0.00051748140579 0.00032700238711 0.00030053707049 5.9719809554e-69 
7.0961736782 2.1879164646e-09 3.8220077913e-18 5.2570044316e-34 2.1679657281e-07 4.8876833602e-06 2.0480109844 6.6175480157 4.9098233889e-17 
1.2211797908e-09 7.4853056244 1.4553913372e-08 5.3034461316e-29 0.00099233211648 0.037976072129 1.1004836463 0.0060372818725 1.6379110745e-21 
0.017044578065 3.908813353e-15 1.0797997011e-19 0.016256267085 0.0003108658096 0.86714082488 0.0048345485498 0.0017738658518 0.00016835274463 
1.2927750921e-17 0.025155543061 2.726349344e-19 2.1458990039e-41 0.092041258389 4.4252659806e-14 7.0596307136e-17 0.00011384703655 3.4482923917e-15 
5.1514938427e-07 3.4970414914e-09 6.5073539236e-38 1.2892837116 0.72368015102 9.4914116378e-08 1.6602526661e-16 3.3396838337e-05 2.604569317e-45 
2.5824301444e-20 1.7883298103e-07 8.7665418451e-18 0.33414009118 0.00034870857664 0.005981321687 0.0090612158915 4.0434599845e-40 2.6031663595e-05 
0.47718200981 1.8512664407e-39 5.630482629e-06 3.0397160421e-19 5.2006698307e-13 9.7369445595e-10 6.5824071143 5.3690982493e-14 1.1804579879e-06 
1.2326133447e-05 6.3782521676 0.1974570741 1.7650092403e-18 5.6211341329e-18 0.0021208451057 5.6640036826 2.3223628577 7.4682198898e-08 
1.7758367883e-35 2.63484511e-10 3.2701269646e-07 2.8230441512e-05 5.6844823624 0.00035527604335 2.2403311167e-16 2.4797368328e-19 1.4032686673e-21 
5.7906441662e-09 9.3396717491e-40 2.1629952707e-05 6.6108835504e-19 0.10010547797 1.2036633433e-08 3.0472172251e-18 4.6464620651e-39 7.8964207464e-19 
3.7947450232e-21 4.1210926831 3.5573728306 7.249095175 3.9429303672e-11 1.0170921084e-46 5.0859041847e-07 5.5220186635e-12 2.2037721647e-06 
1.8932914327e-17 3.4737529563e-38 0.0025108733361 0.00010310764043 4.9380377835e-71 2.5237131258 1.7662929424e-05 0.00044054708812 3.5910045037e-18 
1.6507739366e-14 -3.34982257 0.0005741468378 4.8400638158e-08 5.2847884377 3.6607994826 0.3147647243 1.1084773705e-25 3.7040965962 
3.2367841315 0.00043618843095 9.8531626836e-06 6.119432231e-23 0.0034283847889 2.8588282669e-20 3.2877510551e-07 0.015091272787 6.3674146604 
2.3072849709 0.00039558375033 4.8605970051 1.4517902379e-32 4.6267445055e-23 2.1281207665e-06 0.0010172255788 6.8686750443 2.5540338955e-24 
5.2993443799 6.9804862984 5.7999692861e-16 1.3517763509e-06 7.4412113009 0.95150453983 1.9152925805e-43 3.7037163256 1.5923725068e-38 
3.1431782047 1.060088556e-45 0.094391485862 0.598488546 7.6462368344 1.1508387407e-28 0.0034370709928 7.5913119614 0.31643316289 
3.9799278486e-65 5.5956933868e-08 5.6631236699 1.4954613582e-22 5.995892343 5.9930096355 2.1096272621e-05 7.5997096403e-14 5.0755783602e-10 
1.3865445498e-34 7.3362067248 0.0054845438851 9.0784448531e-05 9.7094239452e-05 0.81244431062 1.8085244353 1.0602729867e-30 3.6430907119e-19 
1.0569013019e-11 0.19542173301 9.5573317152e-11 1.485303929e-08 4.0756367624 2.3721862953 2.2041076978e-09 4.1106173933e-33 0.0019714420636 
2.4121789556e-27 4.7663480109 2.0276696488e-15 5.1514938427e-07 5.6109285216 8.4808138472e-08 4.4923544276e-05 0.0010345139413 0.0019940418236 
0.00017617838438 1.9957416588e-09 0.10000812972 4.7653250692 0.00013157182384 9.4495375381e-21 0.034651326742 8.5788530732e-48 1.2036633433e-08 
8.4830294187e-16 1.8889279548e-09 3.3237125273e-11 0.00027705982597 0.22776449166 3.2082340575e-22 8.5280875951e-29 1.7016170868e-19 7.019219651 
0.2196405784 -0.54727337076 4.2184306758e-20 1.7673402304e-05 1.0909741717 1.8419238821e-39 -2.184162368 3.0808341502e-18 0.0001231386294 
8.5538206354e-43 4.4512073098e-07 8.178051238e-09 0.01276373142 0.43262470916 -2.8010596302 6.1949181874 3.5508519445e-43 0.00057976869575 
8.8958527011e-19 0.013215210755 7.2664774406 3.8518113292e-42 4.664310633 1.7465150979e-17 7.6390088582e-72 0.19759360696 4.2017189242e-05 
3.9791241102e-18 0.060215793283 5.9325286042 2.5264653161 0.0010618958797 0.0094229614481 1.2929900846e-18 7.0963013885 0.070151402295 
7.7682722314e-10 4.0052169048 1.1160990533e-09 6.7291306265 3.9411608281e-07 0.28586207305 5.2454940607e-48 1.9466960791e-21 9.5083900065e-28 
0.00015759923187 -2.8491393649 4.8922714749e-06 2.6559248666e-59 2.5909232909e-45 0.1644348214 3.6373690415e-26 0.090803057775 1.3894807135e-08 
1.3024440388e-16 1.159308924e-15 1.7727475891 7.8360183939e-18 2.8814012745e-22 2.7124673758e-07 2.7652908383e-06 4.3896113475e-05 0.0001665261265 
4.8876833602e-06 4.2004246074e-05 0.00050926369333 0.00020177580264 9.1989535157e-40 1.3673438493e-41 -1.5164570089 0.019704786282 0.0016359663133 
0.001308292615 0.04858218866 1.701395829e-13 3.7330812662e-05 3.8290149894e-24 -1.7497389687 2.3985449813e-47 5.6490000187 1.6403292499e-42 
4.5020406817 6.7190991266 0.37183638787 6.5800831286 4.3715212843e-24 8.277584923e-19 0.0060372449891 7.6025587553 5.6276043312e-11 
1.3520774732e-05 2.0393670966e-22 6.6678494114e-20 0.0072743371501 7.5452989668 0.20822779618 3.3397541748e-05 6.0452640207 1.1453298708e-30 
2.6095671373e-25 1.7305670927e-06 1.0296050896e-30 4.2890421682 1.0519526604e-06 0.13420504301 4.1864403961e-12 3.2143445176e-39 1.3256004713e-05 
5.0757128355e-22 0.00076117720987 0.00016097549808 1.3420910454e-21 1.4565801791e-07 3.6254972112e-05 6.8466998321e-21 2.8926308574e-27 7.0372308113 
1.671996993e-25 0.00059429852473 1.2510543789e-08 1.1229969647 1.6366002456e-15 6.41175332e-18 3.9712177807e-55 3.7192411069e-08 1.9230141819e-20 
0.42929796766 0.21368488533 5.6644481369e-14 1.344990697e-14 9.2017904763e-24 0.00039555048669 1.5931545683e-38 7.5162160108e-08 0.00052511572124 
1.395465004e-16 7.444217705 4.0426450074e-40 8.0909783225e-15 1.7641567318 0.39239846206 0.012689428557 3.013338044e-17 2.1127780197e-22 
5.4211230739e-05 4.86480543e-22 -3.0657053059 3.2701269646e-07 0.039889864571 5.6668350501e-17 0.070926886986 0.0041969965836 6.3402615565e-06 
7.6019552965e-05 0.0011187210195 2.7036182254e-33 9.7105144545e-06 0.038990626814 0.00014965837364 0.44678841798 6.67439511e-44 0.10070829869 
1.9684039308e-06 -3.171085293 4.6733139703e-22 9.4152743259e-07 6.1883623768e-39 9.5726682901e-17 2.5684425178e-09 7.5437819192 7.6292888806 
0.020133004917 0.0043727236379 1.2086168888e-25 1.5223118631e-17 2.5647044079e-67 9.1143925975e-221 0.0065442050509 1.0309973255e-20 9.1231663601e-17 
0.011476885111 1.7826371875 -3.0657423195 0.11576875373 4.0548697143e-05 0.31847478981 6.2645446951e-09 0.00029320109251 2.7702880498 
7.6322756141e-26 1.7244770514e-09 4.3060068845 0.0016078383409 1.8337633012e-05 0.0012088739854 6.8428316552 5.6665351047e-29 0.00014467064321 
4.7082242058 1.4112887039e-28 5.2541315721 1.4867567695e-71 2.1513519404 6.3950256703e-15 4.5278104964e-31 0.027545090246 9.2986565465e-40 
0.52749947938 6.696198485 0.035463509683 1.6205791337e-16 5.3142913078 0.059416739536 0.00015759750861 4.3051157818e-21 1.3004703751e-12 
0.98190444687 1.0243359963e-16 6.4540200946 1.7223062802e-30 -0.39231795187 3.576763673e-08 0.024197636797 2.2668786569e-19 1.03810616e-19 
0.0012009908964 1.8466752846e-16 3.1843027403e-18 2.1271421128e-30 8.3136615801e-06 7.0359556423 8.4857453214e-08 0.019645350583 0.027555089085 
2.1702020953e-38 2.5376250282 1.9253842894e-19 3.4850282563e-10 0.0017702816331 0.049502716222 1.5191075046e-06 3.9108899007 1.8719161206e-10 
2.1841887779e-37 4.626312722e-44 -3.0586723069 1.5298755255e-07 4.4140788191e-10 1.6317020708e-43 6.3885643985e-12 9.6324161183e-11 0.0091729640068 
3.3762639071 9.4331587541e-15 6.0069324663e-53 7.0337568016e-09 5.6276043312e-11 0.14535211262 4.3051157652e-21 0.007275128654 2.6366408545e-17 
2.1156785479e-32 1.9052331039e-48 2.603968035e-46 6.4425608852 3.3202637528e-35 8.6639143659e-22 5.9775982627e-10 1.0942574598 -3.2202689405 
3.1843027402e-18 0.0019718070214 0.0018131233735 0.00016643988916 1.3717566049 1.0733054865e-51 0.2430942644 7.5701769089e-05 1.8475277907e-50 
1.4705501953e-29 1.1270842852 1.5191075046e-06 0.10143810687 0.042241235483 1.1179764473e-69 2.4207105535 5.6644481369e-14 1.3449897483e-14 
0.066068891574 2.1032041772e-24 0.0011832624395 1.3649726099e-07 6.9509949894e-08 1.1871680526e-17 5.2308988819e-22 2.9452888787e-27 1.0400889451e-19 
4.8694469335e-15 2.103030295e-26 6.9684799917e-21 7.8952512566e-07 1.4024731984e-25 5.8658391944e-09 2.8929082861e-41 3.1824395551e-27 1.552120914e-27 
3.0029753707e-09 0.010857659394 1.90565437e-48 1.0157814604e-18 9.2132582258e-16 5.4157677818e-06 4.5559759279e-06 1.3046861098 2.6865213081e-09 
0.014103002199 0.00011406123904 1.702964392e-13 0.015265001159 0.0038713981056 0.0006653247753 0.071026158606 0.0030841264119 2.3185822205e-21 
1.6211825792 3.5731364726e-36 0.59733763366 2.0989004355e-12 2.6751896477 1.0728344486 1.5593721076e-05 4.7339529784e-05 7.7550739758e-42 
1.2243554993e-29 0.00048819627852 1.8960257341e-11 5.0447482085 2.6226560435e-27 6.3485987228e-36 7.6623454203 1.6394352134e-42 0.0025109765214 
2.2761112155e-27 1.3923745362e-23 5.4697112341e-69 5.7710727663 2.0895706718e-13 1.2934516454e-60 8.9642697065e-28 5.7998016033 7.5555389201e-21 
0.010245103873 3.2217657058 3.7730368016e-07 3.5914956452e-44 1.0523328713e-58 3.5900967444e-44 0.029805794501 9.2726319742e-43 0.00074631167766 
2.4392768312 1.7761287848e-05 0.013351623617 0.0049285573633 4.7660248822 0.72618857201 0.015122236676 0.058687772352 5.3341095957e-14 
0.03006489584 0.53773658093 0.0053984848805 1.468333039e-40 2.8048025446e-18 4.9760570446 6.0219808971e-46 9.1779720855e-05 5.5900771259e-17 
8.5789384919e-48 7.8040465955e-20 4.4232309822e-35 4.5136369102e-35 4.2485488205e-08 0.084783002244 0.0016074745539 5.2702941791e-08 1.3057247477e-17 
2.0747204076e-28 1.0491601238e-19 2.5601622433e-27 1.4791353778e-22 3.3380141665e-16 9.380186066e-14 2.7238293639e-19 7.3721734817e-25 7.3470422138 
2.1630169282e-05 1.5846311644e-16 1.8384320477e-28 1.1381792356e-18 2.6280011915e-35 0.093671514759 1.6965877274e-45 3.7330275383e-05 1.0157814604e-18 
9.3199038682e-14 3.6155722678 2.088428029e-15 0.017044150092 2.3391320307e-12 1.7236852654e-23 1.3652963571 2.5794851266e-26 0.29948772439 
0.0059159322205 8.850828507e-38 1.2594909638 0.0046137087964 5.946447748 3.3884805574e-08 1.3913920048 2.7375455857 4.9202229423 
0.4067896521 0.31667581981 6.000342835 3.769614179 0.14818070094 2.0519031988e-20 7.6286054118 1.0290775656e-13 6.0049049832e-22 
6.9044960606e-10 6.2581818749e-46 6.8565084029e-09 7.6404107199e-06 1.3716130165e-17 7.8040465953e-20 0.19175878882 0.53400987551 7.5349766023e-40 
4.2241660825e-27 -3.1979436091 0.00017471655258 4.0305006701e-05 3.7851045598e-28 5.742533088e-17 1.2022528836e-06 1.0638309321e-24 5.9463448393 
1.8475886832e-50 0.016584821997 1.3962430886e-10 4.5295366102 7.7600993895e-15 1.0173049114e-46 0.0145630118 5.0859041846e-07 3.163224509e-08 
4.3513492717e-15 5.0209424445e-19 1.199980069e-10 2.4419705992e-21 0.44092996483 0.0035579326813 6.9252761716 2.79540399e-16 0.092089886263 
0.15660064199 1.0296459143e-09 6.2287930771 -0.79626107977 4.7360450062e-40 7.6590101914 6.0444416322 1.6684088429e-08 2.9151909737e-16 
9.1735779287e-16 1.1180375314e-08 2.8786005087e-05 6.2086692777e-06 3.1281903972 2.6187564619e-52 3.3761280143 0.0089656652791 1.220262528e-17 
1.1381792356e-18 -0.42957579262 2.0942547862e-07 6.0729874311 3.942848528e-16 1.1675176088e-16 2.401643486e-28 0.0010078868163 1.1741740321e-44 
6.4838653326e-29 5.1304069873e-13 1.8319142841e-39 3.8260450795e-17 2.3478385966e-10 1.4007846186e-19 3.0781690617e-41 1.0529261194e-30 2.6002794904e-24 
8.7718403258e-34 5.4082409732e-45 4.1373052624e-09 2.0963009968e-11 0.22573951974 2.5159443863e-09 7.5587597333e-06 1.0743208867e-05 4.0012781832e-06 
0.00033630643286 2.295414671e-08 2.167533849e-26 0.032980133263 4.61874869 1.6358380746e-43 4.0539912532e-23 0.5856908699 0.0053515585949 
4.8855305251 5.9276752086e-206 2.1862474456e-206 3.3299899071e-22 8.8216151674e-09 4.1753197749 0.029843942511 -0.69966454582 0.0031419324906 
0.22557903071 2.8194735102e-06 5.9315208542 5.270294179e-08 -3.1380124821 7.7509295918e-10 5.5818076527 0.79182135267 0.034021466257 
4.6566105546 6.3002437239e-13 0.78229643732 3.6413108477e-17 1.2371044295e-09 6.8555732162 7.0507733857e-15 0.00013684386459 8.9181408311e-24 
4.3594384574 2.5435068911e-06 7.7391461189e-15 4.6094614648 0.042065767728 5.0209424445e-19 1.5888646292e-10 -3.1978448499 3.3455588044e-17 
4.1116717627e-06 9.1737344551e-15 4.350645818e-29 0.0023347330336 7.4874423151e-221 0.1935222595 5.214717953e-09 6.3950256614e-15 0.37835766334 
2.1836075981e-14 1.869969478e-13 6.5803554242 1.0340008172e-12 8.2276097366e-11 0.0048096981323 7.0763240525e-21 3.2849520239e-18 3.1127060029e-20 
7.8530524979e-34 5.967785068e-16 3.2029621629e-20 5.9580487514e-36 6.4734780491 0.010725594705 2.8007408311e-36 7.413262227 1.3817356041e-08 
3.2360344484e-09 -2.0129409527 5.1672568282e-05 0.024033551507 5.747101482e-51 1.6555240175e-44 2.3480691812e-18 7.8549239047e-43 2.974023152e-05 
2.1314498998e-10 9.3317365376e-23 1.1324316799e-13 0.00035973736864 1.3607720669e-16 2.1712069754e-16 7.5889822189 2.0069805491 4.4067606306e-31 
0.90925079638 1.1660490574 1.4534530001e-27 -1.6850442493 1.0415416051 1.0063619018e-46 -2.8875448203 2.0747204074e-28 3.6436943145 
0.0069355219782 1.2408490583e-06 2.4242872059e-33 1.5419247345 5.0496156405e-19 2.7755342969e-14 4.8603037699 9.1346089331e-65 4.4923246032e-05 
4.8988634905e-09 2.0594620314e-16 1.6357892309e-10 4.9247482901e-28 3.6176036231 -1.1677623032 3.4567072393 4.4909474062e-08 3.8762160436 
2.7522274276e-13 1.5068232613e-13 1.2379273594e-10 1.1128963841e-10 2.4257459951e-07 2.3364185316e-07 6.3885643984e-12 1.3652883732 1.5235826586e-06 
2.8248649401e-05 1.107371025e-05 0.00031474865136 3.2772142669e-22 2.9900324836 3.3141704297e-27 1.9468715544 2.3882052719e-17 7.0923232779e-23 
2.362237457e-25 -2.0264933405 2.1589194598 1.7124983218e-08 5.6479564328e-07 5.4252635469e-16 5.63524358e-46 1.0519526604e-06 2.5209770707e-54 
1.9767305061e-05 0.0056598875514 4.584518868e-15 8.0238146657e-06 1.291171519e-06 3.2340883969 9.7064291822e-10 1.1682209281 5.1996454659e-13 
1.7090632146e-21 2.0538783707e-24 2.2826313879e-27 2.4737881768e-11 1.1672545593e-08 9.9814061686e-05 4.680750471e-10 6.6678494116e-20 1.4975176963e-23 