# vtk DataFile Version 4.2
vtk output
ASCII
DATASET UNSTRUCTURED_GRID
POINTS 4342 double
-0.6 -0.6 0 0.6 -0.6 0 0.6 0.6 0 
-0.6 0.6 0 0 0 0 -0.58 -0.6 0 
-0.56 -0.6 0 -0.54 -0.6 0 -0.52 -0.6 0 
-0.5 -0.6 0 -0.48 -0.6 0 -0.46 -0.6 0 
-0.44 -0.6 0 -0.42 -0.6 0 -0.4 -0.6 0 
-0.38 -0.6 0 -0.36 -0.6 0 -0.34 -0.6 0 
-0.32 -0.6 0 -0.3 -0.6 0 -0.28 -0.6 0 
-0.26 -0.6 0 -0.24 -0.6 0 -0.22 -0.6 0 
-0.2 -0.6 0 -0.18 -0.6 0 -0.16 -0.6 0 
-0.14 -0.6 0 -0.12 -0.6 0 -0.1 -0.6 0 
-0.08 -0.6 0 -0.06 -0.6 0 -0.04 -0.6 0 
-0.02 -0.6 0 -8.881784197e-16 -0.6 0 0.02 -0.6 0 
0.04 -0.6 0 0.06 -0.6 0 0.08 -0.6 0 
0.1 -0.6 0 0.12 -0.6 0 0.14 -0.6 0 
0.16 -0.6 0 0.18 -0.6 0 0.2 -0.6 0 
0.22 -0.6 0 0.24 -0.6 0 0.26 -0.6 0 
0.28 -0.6 0 0.3 -0.6 0 0.32 -0.6 0 
0.34 -0.6 0 0.36 -0.6 0 0.38 -0.6 0 
0.4 -0.6 0 0.42 -0.6 0 0.44 -0.6 0 
0.46 -0.6 0 0.48 -0.6 0 0.5 -0.6 0 
0.52 -0.6 0 0.54 -0.6 0 0.56 -0.6 0 
0.58 -0.6 0 0.6 -0.58 0 0.6 -0.56 0 
0.6 -0.54 0 0.6 -0.52 0 0.6 -0.5 0 
0.6 -0.48 0 0.6 -0.46 0 0.6 -0.44 0 
0.6 -0.42 0 0.6 -0.4 0 0.6 -0.38 0 
0.6 -0.36 0 0.6 -0.34 0 0.6 -0.32 0 
0.6 -0.3 0 0.6 -0.28 0 0.6 -0.26 0 
0.6 -0.24 0 0.6 -0.22 0 0.6 -0.2 0 
0.6 -0.18 0 0.6 -0.16 0 0.6 -0.14 0 
0.6 -0.12 0 0.6 -0.1 0 0.6 -0.08 0 
0.6 -0.06 0 0.6 -0.04 0 0.6 -0.02 0 
0.6 -8.881784197e-16 0 0.6 0.02 0 0.6 0.04 0 
0.6 0.06 0 0.6 0.08 0 0.6 0.1 0 
0.6 0.12 0 0.6 0.14 0 0.6 0.16 0 
0.6 0.18 0 0.6 0.2 0 0.6 0.22 0 
0.6 0.24 0 0.6 0.26 0 0.6 0.28 0 
0.6 0.3 0 0.6 0.32 0 0.6 0.34 0 
0.6 0.36 0 0.6 0.38 0 0.6 0.4 0 
0.6 0.42 0 0.6 0.44 0 0.6 0.46 0 
0.6 0.48 0 0.6 0.5 0 0.6 0.52 0 
0.6 0.54 0 0.6 0.56 0 0.6 0.58 0 
0.58 0.6 0 0.56 0.6 0 0.54 0.6 0 
0.52 0.6 0 0.5 0.6 0 0.48 0.6 0 
0.46 0.6 0 0.44 0.6 0 0.42 0.6 0 
0.4 0.6 0 0.38 0.6 0 0.36 0.6 0 
0.34 0.6 0 0.32 0.6 0 0.3 0.6 0 
0.28 0.6 0 0.26 0.6 0 0.24 0.6 0 
0.22 0.6 0 0.2 0.6 0 0.18 0.6 0 
0.16 0.6 0 0.14 0.6 0 0.12 0.6 0 
0.1 0.6 0 0.08 0.6 0 0.06 0.6 0 
0.04 0.6 0 0.02 0.6 0 8.881784197e-16 0.6 0 
-0.02 0.6 0 -0.04 0.6 0 -0.06 0.6 0 
-0.08 0.6 0 -0.1 0.6 0 -0.12 0.6 0 
-0.14 0.6 0 -0.16 0.6 0 -0.18 0.6 0 
-0.2 0.6 0 -0.22 0.6 0 -0.24 0.6 0 
-0.26 0.6 0 -0.28 0.6 0 -0.3 0.6 0 
-0.32 0.6 0 -0.34 0.6 0 -0.36 0.6 0 
-0.38 0.6 0 -0.4 0.6 0 -0.42 0.6 0 
-0.44 0.6 0 -0.46 0.6 0 -0.48 0.6 0 
-0.5 0.6 0 -0.52 0.6 0 -0.54 0.6 0 
-0.56 0.6 0 -0.58 0.6 0 -0.6 0.58 0 
-0.6 0.56 0 -0.6 0.54 0 -0.6 0.52 0 
-0.6 0.5 0 -0.6 0.48 0 -0.6 0.46 0 
-0.6 0.44 0 -0.6 0.42 0 -0.6 0.4 0 
-0.6 0.38 0 -0.6 0.36 0 -0.6 0.34 0 
-0.6 0.32 0 -0.6 0.3 0 -0.6 0.28 0 
-0.6 0.26 0 -0.6 0.24 0 -0.6 0.22 0 
-0.6 0.2 0 -0.6 0.18 0 -0.6 0.16 0 
-0.6 0.14 0 -0.6 0.12 0 -0.6 0.1 0 
-0.6 0.08 0 -0.6 0.06 0 -0.6 0.04 0 
-0.6 0.02 0 -0.6 8.881784197e-16 0 -0.6 -0.02 0 
-0.6 -0.04 0 -0.6 -0.06 0 -0.6 -0.08 0 
-0.6 -0.1 0 -0.6 -0.12 0 -0.6 -0.14 0 
-0.6 -0.16 0 -0.6 -0.18 0 -0.6 -0.2 0 
-0.6 -0.22 0 -0.6 -0.24 0 -0.6 -0.26 0 
-0.6 -0.28 0 -0.6 -0.3 0 -0.6 -0.32 0 
-0.6 -0.34 0 -0.6 -0.36 0 -0.6 -0.38 0 
-0.6 -0.4 0 -0.6 -0.42 0 -0.6 -0.44 0 
-0.6 -0.46 0 -0.6 -0.48 0 -0.6 -0.5 0 
-0.6 -0.52 0 -0.6 -0.54 0 -0.6 -0.56 0 
-0.6 -0.58 0 0.25 -0.58267949192 0 -0.25 -0.58267949192 0 
-0.24969338163 0.58271630631 0 0.58313820224 0.25089999788 0 -0.58073798855 0.23055415423 0 
0.23 0.58267949192 0 0.5822727489 -0.23023532651 0 -0.58232885758 -0.22986293355 0 
-0.13 -0.58267949192 0 0.58091085312 0.12866705289 0 -0.13050081 0.58443309409 0 
0.13 -0.58267949192 0 0.11 0.58267949192 0 0.58128887437 -0.11185352307 0 
-0.58641004823 0.11046978504 0 -0.58097603768 -0.11235367818 0 -0.01 0.5841811861 0 
0.01 -0.58267949192 0 0.58217507245 0.011050809949 0 -0.58206506685 -0.010494327869 0 
0.58255589861 -0.33012459525 0 -0.58098267687 0.33246863147 0 0.33 0.58267949192 0 
-0.58090018381 -0.32734039494 0 0.35 -0.58267949192 0 0.58210978525 0.34851718814 0 
-0.34984356206 0.58269328777 0 -0.35 -0.58267949192 0 -0.58404031657 -0.41125547479 0 
0.58404031657 -0.41125547479 0 0.41 0.58267949192 0 -0.58127371569 0.40748932397 0 
0.43 -0.58267949192 0 0.58287041801 0.42966930632 0 -0.43030661837 0.58271630631 0 
-0.43 -0.58267949192 0 0.49 0.58267949192 0 0.58119455181 -0.49272606834 0 
-0.58196591894 0.48785347999 0 -0.58132747275 -0.49216380446 0 0.58099079541 0.19297246443 0 
-0.18926154554 0.58413656679 0 0.05 0.58267949192 0 0.19 -0.58267949192 0 
-0.07 -0.58267949192 0 0.58212565717 -0.051217328366 0 -0.07 0.58267949192 0 
0.58245912871 0.070013739955 0 0.07 -0.58267949192 0 0.58168449499 -0.17128271923 0 
-0.58574378526 0.05125913651 0 0.17050081 0.58443309409 0 -0.58168449499 -0.17128271923 0 
-0.58573295936 0.16883725031 0 -0.19 -0.58267949192 0 0.49 -0.58267949192 0 
-0.49050081 0.58443309409 0 0.58415322569 0.48921568047 0 -0.49 -0.58267949192 0 
0.53 -0.58267949192 0 0.58203286059 0.53119351335 0 -0.53 0.58267949192 0 
-0.58222913959 -0.53018403998 0 0.58202539473 0.28969699417 0 -0.29 0.58267949192 0 
-0.58451963751 -0.45057023735 0 -0.58267949192 -0.07 0 -0.29 -0.58267949192 0 
-0.03 -0.58267949192 0 0.39 -0.58267949192 0 0.58307204747 0.39068583015 0 
-0.39 0.58373814012 0 0.29 -0.58267949192 0 0.58208722445 -0.45065236781 0 
0.45042926572 0.58129593389 0 -0.58211115223 0.44955595746 0 -0.58432719917 -0.36932980655 0 
-0.58406793967 -0.26883049013 0 0.5820526686 -0.36901719046 0 0.37 0.58267949192 0 
-0.5823078615 0.36998422007 0 -0.39 -0.58267949192 0 -0.58211498987 0.271305057 0 
-0.53 -0.58267949192 0 0.58222913959 -0.53018403998 0 0.53 0.58373814012 0 
-0.58219774606 0.53090792334 0 0.58030324732 -0.28813008885 0 0.29050081 0.58443309409 0 
-0.58188605505 -0.56816348762 0 0.56922649731 -0.58312607391 0 0.58067979276 0.57009350437 0 
-0.57009384201 0.58146184644 0 0.54987108288 -0.58275392226 0 0.53997851381 -0.5653713889 0 
0.51999641897 -0.56536105136 0 0.52999582213 -0.54804088787 0 0.50999870685 -0.54803922237 0 
0.51999908816 -0.53071849415 0 0.4999996325 -0.53071817987 0 0.50999978678 -0.51339758273 0 
0.48999990321 -0.5133975155 0 0.49999994833 -0.49607698138 0 0.47999997526 -0.49607696583 0 
0.48999998726 -0.47875645082 0 0.46999999375 -0.47875644708 0 0.47999999684 -0.46143593722 0 
0.45999999843 -0.4614359363 0 0.46999999921 -0.44411542777 0 0.44999999961 -0.44411542755 0 
0.4599999998 -0.42679491936 0 0.4399999999 -0.4267949193 0 0.44999999995 -0.4094744112 0 
0.42999999998 -0.40947441118 0 0.43999999999 -0.3921539031 0 0.41999999999 -0.3921539031 0 
0.43 -0.37483339502 0 0.41 -0.37483339502 0 0.42 -0.35751288694 0 
0.4 -0.35751288694 0 0.41 -0.34019237886 0 0.39 -0.34019237886 0 
0.4 -0.32287187079 0 0.38 -0.32287187079 0 0.39 -0.30555136271 0 
0.37 -0.30555136271 0 0.38 -0.28823085464 0 0.36 -0.28823085464 0 
0.37 -0.27091034656 0 0.35 -0.27091034656 0 0.36 -0.25358983849 0 
0.34 -0.25358983849 0 0.35 -0.23626933041 0 0.33 -0.27091034656 0 
0.32 -0.25358983849 0 0.31 -0.27091034656 0 0.3 -0.25358983849 0 
0.29 -0.27091034656 0 0.28 -0.25358983849 0 0.27 -0.27091034656 0 
0.26 -0.25358983849 0 0.25 -0.27091034656 0 0.27 -0.23626933041 0 
0.24 -0.25358983849 0 0.23 -0.27091034656 0 0.22 -0.25358983849 0 
0.21 -0.27091034656 0 0.2 -0.25358983849 0 0.19 -0.27091034656 0 
0.18 -0.25358983849 0 0.17 -0.27091034656 0 0.19 -0.23626933041 0 
0.16 -0.25358983849 0 0.15 -0.27091034656 0 0.14 -0.25358983849 0 
0.13 -0.27091034656 0 0.12 -0.25358983849 0 0.11 -0.27091034656 0 
0.1 -0.25358983849 0 0.09 -0.27091034656 0 0.08 -0.25358983849 0 
0.07 -0.27091034656 0 0.06 -0.25358983849 0 0.05 -0.27091034656 0 
0.04 -0.25358983849 0 0.03 -0.27091034656 0 0.02 -0.25358983849 0 
0.01 -0.27091034656 0 -1.7474921972e-14 -0.25358983849 0 -0.01 -0.27091034656 0 
-0.02 -0.25358983849 0 -0.03 -0.27091034656 0 -0.04 -0.25358983849 0 
-0.05 -0.27091034656 0 -0.06 -0.25358983849 0 -0.07 -0.27091034656 0 
-0.08 -0.25358983849 0 -0.09 -0.27091034656 0 -0.1 -0.25358983849 0 
-0.11 -0.27091034656 0 -0.12 -0.25358983849 0 -0.13 -0.27091034656 0 
-0.14 -0.25358983849 0 -0.15 -0.27091034656 0 -0.16 -0.25358983849 0 
-0.17 -0.27091034656 0 -0.18 -0.25358983849 0 -0.19 -0.27091034656 0 
-0.2 -0.25358983849 0 -0.21 -0.27091034656 0 -0.22 -0.25358983849 0 
-0.21 -0.23626933041 0 -0.23 -0.23626933041 0 -0.22 -0.21894882233 0 
-0.23 -0.27091034656 0 -0.24 -0.21894882233 0 -0.23 -0.20162831426 0 
-0.25 -0.20162831426 0 -0.24 -0.18430780618 0 -0.26 -0.18430780618 0 
-0.25 -0.16698729811 0 -0.27 -0.16698729811 0 -0.26 -0.14966679003 0 
-0.27 -0.20162831426 0 -0.28 -0.14966679003 0 -0.27 -0.13234628196 0 
-0.29 -0.13234628196 0 -0.28 -0.11502577388 0 -0.3 -0.11502577388 0 
-0.29 -0.097705265805 0 0.22 -0.28823085464 0 0.1 -0.28823085464 0 
-0.1 -0.28823085464 0 -0.22 -0.28823085464 0 -0.24 -0.28823085464 0 
0.02 -0.28823085464 0 -0.31 -0.13234628196 0 -0.31 -0.097705265805 0 
-0.3 -0.080384757729 0 -0.28 -0.080384757729 0 -0.29 -0.063064249654 0 
-0.31 -0.063064249654 0 -0.3 -0.045743741578 0 -0.28 -0.045743741578 0 
-0.29 -0.028423233502 0 -0.27 -0.028423233502 0 -0.28 -0.011102725427 0 
-0.3 -0.011102725427 0 -0.29 0.0062177826491 0 -0.27 0.0062177826491 0 
-0.28 0.023538290725 0 -0.26 0.023538290725 0 -0.27 0.0408587988 0 
-0.25 0.0408587988 0 -0.26 0.058179306876 0 -0.24 0.058179306876 0 
-0.25 0.075499814952 0 -0.23 0.075499814952 0 -0.24 0.092820323028 0 
-0.22 0.092820323028 0 -0.23 0.1101408311 0 -0.21 0.1101408311 0 
-0.22 0.12746133918 0 -0.2 0.12746133918 0 -0.21 0.14478184725 0 
-0.19 0.14478184725 0 -0.2 0.16210235533 0 -0.18 0.16210235533 0 
-0.19 0.17942286341 0 -0.17 0.17942286341 0 -0.21 0.17942286341 0 
-0.2 0.19674337148 0 -0.22 0.19674337148 0 -0.21 0.21406387956 0 
-0.23 0.21406387956 0 -0.22 0.23138438763 0 -0.24 0.23138438763 0 
-0.23 0.24870489571 0 -0.21 0.24870489571 0 -0.25 0.24870489571 0 
-0.27 0.075499814952 0 -0.22 0.26602540378 0 -0.2 0.26602540378 0 
-0.21 0.28334591186 0 -0.19 0.28334591186 0 -0.31 0.0062177826491 0 
-0.23 -0.16698729811 0 0.11 -0.23626933041 0 -0.2 0.30066641994 0 
-0.18 0.30066641994 0 -0.23 -0.30555136271 0 -0.25 -0.30555136271 0 
0.39 -0.37483339502 0 -0.09 -0.23626933041 0 -0.19 0.31798692801 0 
[...]
CELL_DATA 8442
FIELD FieldData 1
radiation%20flux%20density 1 8442 double
1.9274355127e-60 2.5646866898e-39 8.2640184827e-35 8.09292191e-21 1.1767403953e-21 7.947669165e-61 1.6101147072e-28 2.6983609064e-33 2.2867467913e-19 
3.6093950347e-23 9.7005511639e-41 2.443313934e-42 7.8922839273e-28 8.1489365534e-28 2.7673056649e-71 8.8592938739e-40 2.3688412482e-51 1.8167171334e-20 
7.4066708086e-45 2.6539365741e-30 2.7794881707e-26 2.8009546379e-71 1.1275241803e-63 2.0345713333e-58 2.0356582758e-37 1.0950268981e-63 2.3850211552e-55 
1.9125948336e-38 4.0943228116e-42 6.5095620476e-22 2.8236328016e-42 4.7253716359e-49 7.6937998754e-23 7.5425709816e-23 3.2305679177e-21 2.5535379857e-26 
2.5314412328e-26 1.5096270847e-22 9.4112631975e-31 9.7971443879e-31 2.2200340554e-38 2.7032644862e-73 1.1962755229e-49 4.8787192558e-19 4.5203736645e-34 
1.6058343656e-33 1.2747791957e-33 2.4020277184e-69 2.4099124488e-69 7.3430994691e-45 8.6812757864e-37 1.6510368739e-44 8.7448480335e-67 8.2837587927e-67 
6.3726919759e-45 4.2155329616e-23 2.2251074682e-46 9.2317488501e-25 2.2926496068e-24 2.199069876e-24 1.1155393653e-22 2.4165528124e-227 3.6684923618e-20 
3.9868607802e-118 1.1855312443e-56 9.6500243064e-41 1.5462597129e-50 9.4522180891e-75 1.2040384443e-138 1.9771048569e-30 1.6432198712e-30 1.0711527318e-55 
7.5702978181e-37 4.1967095216e-120 1.8845721767e-38 8.6856529644e-62 2.1832982565e-20 3.5383689811e-19 3.5151546026e-29 3.6396693709e-29 1.2330966059e-22 
5.9783470208e-22 9.0288775337e-61 9.8900769676e-32 1.3157246326e-33 3.7114799249e-28 1.1658429843e-26 2.3481746978e-69 2.4101641169e-69 7.5231823369e-125 
7.5231823368e-125 1.9538196995e-37 1.0579741358e-19 6.6447816134e-49 6.6627795534e-49 4.8110932723e-21 4.8889692899e-22 6.407291817e-31 6.2572436036e-31 
1.9207014324e-42 3.3120010298e-81 1.9877351754e-38 1.3995969974e-35 6.3508726779e-36 1.3148539676e-53 1.4301447984e-35 1.027627009e-44 3.4729737843e-21 
2.3339224786e-67 2.311445627e-67 2.9261130623e-72 2.686217711e-46 8.7848479338e-64 8.5321654972e-64 6.0825188322e-59 3.3095618467e-54 2.8251645597e-19 
2.3057775391e-31 1.4129782183e-27 1.466720371e-27 5.2595113128e-19 1.1294623403e-40 4.5160876604e-19 3.172955882e-30 3.2845517638e-30 7.0767035546e-26 
4.7299490062e-28 4.7412708454e-28 6.2448964152e-21 1.4889106726e-23 5.055433753e-37 1.3295124577e-32 2.0802266904e-75 3.3887830493e-43 5.4070289627e-24 
1.2261332405e-44 5.6081952748e-59 1.2579242048e-51 1.2476465466e-51 8.2017206471e-41 5.4022638073e-24 112.28009511 112.2767568 1.0947439875e-20 
1.5918930529e-29 1.5496094601e-29 4.3012295663e-72 6.5530686816e-41 2.6742818646e-27 6.6270905311e-37 6.5511471548e-19 2.4528961943e-46 9.2205520113e-45 
1.2769355344e-65 1.3278654926e-65 2.1456430737e-65 4.8493050307e-64 1.0029033463e-21 2.0573974439e-33 2.3225091427e-47 2.3924516148e-47 1.7984617166e-23 
4.4058915217e-64 4.3889513151e-64 5.6214747581e-37 1.2664086813e-50 7.6428888937e-62 1.342797023e-40 6.4296385231e-22 2.38796893e-20 1.296100717e-58 
8.5871705469e-35 8.5721969234e-20 112.47221176 112.48478032 3.5456597147e-62 112.55511222 112.54909635 2.1426935814e-31 3.4824460473e-62 
4.0516812605e-46 5.4572492136e-27 5.3652520502e-27 2.4271937851e-77 1.5806524241e-20 3.2475403709e-39 9.9606969527e-78 3.3037920278e-43 9.943111994e-55 
4.3382268999e-59 1.2327984462e-72 1.2439345151e-72 5.4753154098e-45 4.1187762615e-59 2.7683557631e-57 1.7027499228e-48 3.9361477981e-41 1.6894964869e-35 
8.1826066626e-57 1.4260472429e-29 3.9390904312e-39 1.2536746818e-35 1.5867093885e-23 7.8494096281e-27 6.3502185527e-28 8.1369752496e-23 6.7964642294e-27 
4.3843258706e-24 2.1468076607e-24 2.8659808959e-27 1.7315367586e-27 4.7001348761e-24 4.0583364052e-28 5.6566814989e-27 2.6429206454e-26 1.2053468695e-32 
3.1393162687e-24 7.501108755e-25 9.12519768e-52 4.6962758973e-25 1.3920402788e-62 3.6640059079e-56 4.4387044302e-56 6.1133580793e-53 1.1256692796e-57 
2.408951976e-37 6.840666532e-28 0.0068342723983 0.0011284245006 0.0040024643778 0.002048236106 0.0080686309387 4.5416617035e-17 0.0023800351525 
3.4414167212e-40 1.5186516526e-33 1.2904383691e-23 2.664650818e-19 2.3459060203e-18 0.00058221198089 0.0016749099183 0.002184738041 0.0055300084241 
1.2120954039e-05 0.044619194028 0.0027685972467 2.3375485571e-25 0.00089787390587 7.9142074771e-38 0.0032521569744 1.673125959e-31 4.2887990741e-06 
1.3653505163e-13 2.0352256966e-37 1.0751477619e-14 5.0519050403e-22 1.5556956826e-10 9.7285733981e-21 1.3066901118e-35 1.3901564001e-42 1.6062236431e-12 
1.1548760715e-54 0.0012513194465 0.0043776179083 0.0021678767531 6.974064607e-16 1.4544039351e-20 0.0015924903671 2.5739115426e-19 0.0018636485121 
1.6913951616e-11 1.8640911454e-30 3.9708730887e-15 0.0053798626121 9.7947365023e-21 0.00010298378977 0.0060740994716 4.2988362386e-35 3.8939639274e-65 
8.4281537664e-68 1.1798293951e-05 5.1122636648e-30 1.4907829198e-28 1.5348511956e-11 0.0020140577526 7.6612213324e-07 9.6554994898e-39 2.8434853682e-09 
1.6127717688e-10 3.7207998063e-16 1.7248509038e-11 0.00043297550472 8.2077511521e-06 4.1798283017e-27 2.5235034784e-05 2.9438281532e-16 0.0063225054123 
0.004333025987 11.450222567 15.66968776 3.7721218412e-63 0.00051635767447 4.822073899e-17 0.75421852019 0.00010763495833 2.4077464563e-05 
8.1554996681e-10 1.7217769867e-18 5.8276745901e-11 3.2353243949e-37 0.011057833876 4.8975522666e-22 1.3121155658e-09 1.198628679e-17 25.197154295 
5.1019336704e-10 7.393927548e-06 2.4075033632e-06 0.0001286394525 3.0290643761e-15 4.7411931064e-15 4.4040006829e-18 0.015128411878 0.00026869232863 
2.3858787756e-17 2.0105467281e-08 0.000151558137 0.0050284211783 17.654878424 2.0128961268e-18 21.097202298 0.009087038995 4.6894012873e-18 
1.9765456458e-07 9.2069680024e-09 3.0078797044e-16 21.964063041 1.2360114236e-09 17.032551134 12.529570488 1.6503045868e-12 9.0842530036 
8.8103995151e-17 26.289180197 0.0070873038684 26.469417129 20.977784093 0.0015435307905 0.0014285728382 0.00092103836757 2.2137788116e-68 
24.604121406 9.7981150074e-09 1.0378911534e-17 1.545749832e-33 5.9252035732e-07 2.1954789432e-05 7.6639212331 23.190995728 1.2688224632e-16 
3.2035311482e-09 26.268026764 6.5146730882e-08 2.117856877e-28 0.0043776179083 0.12046314945 3.8769501462 0.026221659207 4.3001779075e-21 
0.072095536745 1.0310429782e-14 2.579268907e-19 0.055889752339 0.0013089216321 3.0204624041 0.020808447853 0.0064384468266 0.00050479842754 
3.3042657382e-17 0.087974063859 6.8740121542e-19 6.2854009678e-41 0.298033451 1.4257326741e-13 1.9333234421e-16 0.0005285127473 1.1207721138e-14 
2.2827840354e-06 9.8289582305e-09 2.0220115479e-37 4.8747836806 2.804253627 4.2157128584e-07 4.2213404542e-16 0.00010157628667 7.4779895057e-45 
6.9001159432e-20 5.1859691102e-07 2.2804990126e-17 1.1486185219 0.0015924903671 0.020571804362 0.031655179658 1.3791130207e-39 7.6502123752e-05 
1.663209677 5.8182194283e-39 1.620942183e-05 7.2581753762e-19 1.6694119654e-12 3.8613180915e-09 23.841036652 1.3950845893e-13 3.3096874953e-06 
3.6392561513e-05 23.109841551 0.64495472823 4.4040005901e-18 1.6233200102e-17 0.0064532978095 19.407994652 8.1462219999 2.028811391e-07 
5.2338907936e-35 7.7367334011e-10 1.2525715817e-06 0.00013448293209 20.078384204 0.0012063340071 7.3145394175e-16 7.4011739673e-19 3.8040970283e-21 
1.5580730188e-08 3.0581893212e-39 6.4634382714e-05 1.7245242524e-18 0.36515002066 3.262778195e-08 7.5928467486e-18 1.7389844127e-38 2.0107967824e-18 
9.4021695974e-21 14.891576464 12.072790094 26.172406474 1.1241241835e-10 3.5395897908e-46 1.6392598762e-06 1.759486303e-11 1.0490877843e-05 
4.6088491627e-17 1.1224762505e-37 0.0076714454976 0.00030518395836 1.859355308e-70 9.0667970782 8.2070493488e-05 0.0013630942838 1.7312099409e-17 
4.5770822784e-14 -11.8412807 0.0017979335276 1.3281669152e-07 19.110702994 13.401813669 1.0806071051 4.4284562018e-25 13.430083335 
11.700346455 0.0020140577526 2.8764479193e-05 2.4807642418e-22 0.014108787071 1.0404734875e-19 9.1065877129e-07 0.047458149219 21.934374823 
8.2917197128 0.0011956214083 17.611763338 5.733466088e-32 1.2460693653e-22 6.1732381359e-06 0.0031428297279 24.845765468 6.7724005092e-24 
19.192020255 24.621148711 3.185246152e-15 5.7681660655e-06 26.656120206 3.5171702672 6.1371211251e-43 13.428769039 5.345170382e-38 
11.130665638 3.2859233787e-45 0.33835383788 2.0045075146 26.448669025 3.922449054e-28 0.010577674225 26.806323962 1.0509987506 
1.4319695586e-64 2.147705843e-07 20.522276953 7.9213070172e-22 21.696397323 21.698822082 9.4323977548e-05 4.0789521228e-13 1.3455430504e-09 
4.9807524762e-34 26.3803935 0.019873021813 0.00039901114989 0.0004471438921 3.1535689144 6.3566414242 4.2085841216e-30 1.0475488649e-18 
2.7034387856e-11 0.66033608437 2.4660886271e-10 4.0652429153e-08 14.769903778 8.3077639048 5.8660124283e-09 1.5248333348e-32 0.0062536840834 
9.653340315e-27 16.79640137 9.042152269e-15 2.2827840354e-06 19.860838061 2.7437621283e-07 0.00013795131145 0.0043329248069 0.0080676783817 
0.00054720011073 5.8535763611e-09 0.36477212658 16.876443631 0.00040365442397 2.8576694516e-20 0.13697963735 3.18482119e-47 3.262778195e-08 
2.1423053332e-15 6.1475689759e-09 1.4931007019e-10 0.0012513194465 0.91953797709 1.1727505483e-21 2.5204051332e-28 8.0379310432e-19 24.85252932 
0.79486991439 -1.9844056563 2.4989902417e-19 5.0526370317e-05 3.7143981893 5.7793696426e-39 -7.93172573 7.7034192612e-18 0.00057393924184 
2.4177796478e-42 2.1290532784e-06 3.0805635029e-08 0.045373378089 1.6973731054 -9.9861677982 21.097080936 1.0903568756e-42 0.0023799742889 
2.2337305187e-18 0.042540749309 25.153278476 1.2677190099e-41 16.550374376 4.8797765622e-17 2.9407709875e-71 0.64537179441 0.00012863753125 
1.187395904e-17 0.19331771547 20.959197003 9.089617668 0.0035824013884 0.029879212397 3.4020321316e-18 25.007776711 0.28280953764 
2.0631581792e-09 14.116081411 4.2358928213e-09 23.422569281 1.1220045702e-06 1.0271841625 1.7890478885e-47 7.8963736213e-21 5.1236665021e-27 
0.00048697921848 -9.9611680604 1.4511014096e-05 9.838699585e-59 7.3409638159e-45 0.56475428947 8.9275477846e-26 0.30595315351 4.4941194303e-08 
3.9034934823e-16 3.1909136392e-15 6.0822462953 3.4641693472e-17 1.0864403899e-21 1.0644982094e-06 1.2120954039e-05 0.00013064958492 0.00051633643666 
2.1954789432e-05 0.00013966014282 0.002184738041 0.00089787390587 2.473449669e-39 4.1610484008e-41 -5.2949774988 0.064933646813 0.0069729315712 
0.0039857728809 0.16071184747 4.7399440386e-13 0.00014341050198 1.5334276674e-23 -6.2145240736 7.5213958759e-47 20.10965559 5.6073106567e-42 
15.395412772 23.115542246 1.3814111765 23.369323624 1.109251891e-23 2.3516809547e-18 0.026221413018 26.540080645 2.9552575448e-10 
3.8816957924e-05 4.8337630432e-22 1.8177115218e-19 0.022416812337 26.397790566 0.76720825628 0.00010157820158 21.419639477 4.5507264512e-30 
6.437864223e-25 6.5960953552e-06 4.0849700465e-30 15.547913201 3.3413757128e-06 0.43713224111 1.1993042968e-11 9.6853913777e-39 5.4408668426e-05 
1.5379957866e-21 0.0022717677754 0.00053574180857 4.9672167499e-21 5.2252277456e-07 0.0001371369715 3.8349419938e-20 8.2525865817e-27 25.112848496 
5.5918944556e-25 0.0018611548107 6.0983955604e-08 3.8815531188 5.5132612229e-15 2.193787488e-17 1.4893852804e-54 1.0132491212e-07 8.4148519875e-20 
1.5652954642 0.86126664564 2.979930291e-13 3.7047419804e-14 2.2563694937e-23 0.0011955375762 5.3478384755e-38 3.6560449344e-07 0.0019700268616 
6.2400132397e-16 25.745002355 1.3786648074e-39 4.5323367544e-14 6.0348387967 1.5365253098 0.051072528227 7.6188584767e-17 1.1658067397e-21 
0.00024277661035 2.8665036755e-21 -10.923387435 1.2525715817e-06 0.14376901253 1.5419889412e-16 0.24229573102 0.01305433435 2.6969014728e-05 
0.00034590841628 0.0034147881054 1.0580941081e-32 4.0660819102e-05 0.14367783823 0.00057149305093 1.7541252217 1.9493007729e-43 0.41034761631 
8.3171523158e-06 -11.273746778 1.1687815624e-21 4.2887990741e-06 2.1540521687e-38 2.5620364761e-16 6.9258746282e-09 26.457956175 26.571097201 
0.063446240209 0.015551886402 4.7504037118e-25 3.9906246902e-17 9.9497136682e-67 3.2309680516e-220 0.020354759626 2.6665970632e-20 2.2177913778e-16 
0.035924016133 6.1892175073 -10.923604908 0.37578175545 0.00016917917455 1.2012740991 2.7132414771e-08 0.00098881350918 9.6365651344 
2.9980253262e-25 4.5470800684e-09 15.109908739 0.0050515234096 6.5199490582e-05 0.0053798626121 23.38777295 2.2344171529e-28 0.00054445801531 
16.633898816 3.3051466351e-28 18.576631105 5.0418342657e-71 8.0505559555 3.5196945183e-14 1.7270580958e-30 0.087572462584 3.0439500418e-39 
0.75678344439 23.826061932 0.14758714848 9.0722227954e-16 19.253480879 0.18952965667 0.00048697491413 1.6916165278e-20 5.1716099218e-12 
3.3649740199 3.4593975364e-16 23.381632523 6.2052689828e-30 -2.4241763853 9.9962899919e-08 0.078846879497 1.3411395835e-18 4.0428434691e-19 
0.0037728677962 5.3587700191e-16 1.4378765519e-17 5.2728904585e-30 3.1574341375e-05 24.826385673 2.4988001223e-07 0.080160171598 0.11369793806 
7.9142052999e-38 8.8243671509 4.5848178624e-19 1.762010947e-09 0.0054011129787 0.15736151419 7.0885430823e-06 13.718819376 5.1019336703e-10 
5.7412737569e-37 1.7830968008e-43 -10.848690096 4.1655535219e-07 1.395045226e-09 5.9598251904e-43 3.3358048118e-11 2.5354532381e-10 0.028572432284 
11.847974119 5.3464977074e-14 2.1651076137e-52 2.7763920903e-08 2.9552575448e-10 0.48067739982 1.6916165226e-20 0.022418914598 6.7861261223e-17 
5.4108435029e-32 6.7490032031e-48 8.7345335226e-46 23.337817435 1.1308703186e-34 3.7916113942e-21 2.4314920886e-09 3.7923390009 -11.425615078 
1.4378765519e-17 0.0062547238812 0.0056712473617 0.00068617490777 4.9030061774 3.9227449809e-51 0.79590272556 0.00022158043332 6.8391792627e-50 
5.3631529742e-29 4.0775952338 7.0885430823e-06 0.33035402591 0.17685156894 4.2455135536e-69 8.3603905893 2.979930291e-13 3.7046012178e-14 
0.211745436 8.5078097982e-24 0.0040186118651 4.2975042331e-07 2.4512127502e-07 6.8982698368e-17 3.0937711313e-21 1.1657031542e-26 5.2173920568e-19 
1.9877544262e-14 6.3233516045e-26 2.5045546337e-20 2.8289795025e-06 5.5757981248e-25 2.1491866842e-08 7.7675462736e-41 1.2499432618e-26 6.0694204398e-27 
1.0834011838e-08 0.036937073465 6.7498973455e-48 2.8016223903e-18 2.5346057133e-15 1.7193681064e-05 1.3141833414e-05 4.740558498 7.5123056006e-09 
0.059240380807 0.000447894801 4.744308002e-13 0.055039433861 0.013164160715 0.0020079355102 0.26864476915 0.009390689253 6.4548682968e-21 
5.5788764106 1.3066900698e-35 2.0539724558 5.8976612175e-12 9.2800674671 2.4089026428 5.0746080108e-05 0.00013868051824 2.4543193601e-41 
4.7897009644e-29 0.0015201458336 6.4580049465e-11 18.270853201 6.3967462139e-27 1.6457218013e-35 26.871056674 5.603902763e-42 0.0076717067108 
5.377919279e-27 4.27422298e-23 2.1066106572e-68 20.456986344 5.8317288877e-13 4.7316075717e-60 2.7016973825e-27 20.601161928 4.2451770043e-20 
0.03219389352 11.333508407 1.4306736546e-06 1.2489066209e-43 3.784144943e-58 1.2482809407e-43 0.10175154358 2.5797220611e-42 0.0032521569744 
8.7466520734 7.2236397154e-05 0.04296690756 0.015119967376 17.270493572 2.6627159103 0.055811350083 0.19222143867 1.3653505162e-13 
0.094761101354 1.8238348917 0.016991686895 5.2009219934e-40 1.5691083586e-17 17.551125445 2.289518716e-45 0.00036332818082 2.0655654193e-16 
3.1848626526e-47 2.0612516616e-19 1.0923374836e-34 1.7817272029e-34 1.8311086634e-07 0.31621730351 0.0050504608703 1.983071854e-07 3.7763511256e-17 
5.4790299236e-28 4.4830564774e-19 6.2463544928e-27 5.7891348645e-22 1.3594807851e-15 2.348990267e-13 6.8352314879e-19 1.71867757e-24 26.446579845 
6.4634915576e-05 4.2365251973e-16 4.4506335745e-28 3.0563969361e-18 7.4384085592e-35 0.34227220355 4.9798922939e-45 0.00014340828299 2.8016223903e-18 
5.0745754017e-13 12.625527437 6.196062251e-15 0.072092923241 6.5813674275e-12 4.1382495134e-23 5.1646567986 9.9723257897e-26 0.99880393482 
0.01895506287 2.602985532e-37 4.4541070725 0.018670760821 20.307206386 1.0380830056e-07 4.9890672496 9.6230664727 17.829224065 
1.3539492422 1.0517447747 21.243938266 13.156560937 0.48314821071 1.0217811704e-19 26.569507948 2.8202727648e-13 1.4800788755e-21 
2.1192917456e-09 2.4405461693e-45 2.0465805404e-08 3.5052103941e-05 7.1607839153e-17 2.0612516616e-19 0.70723557736 0.76066729092 2.9527341922e-39 
1.0571401533e-26 -11.262814675 0.00053030284015 0.00012336729548 1.35919386e-27 2.7409565229e-16 3.3353386854e-06 3.1495123024e-24 20.306521815 
6.8394215933e-50 0.055598138554 5.2985743558e-10 15.90306537 2.132035557e-14 3.5400645464e-46 0.046409201072 1.6392598762e-06 1.0066790467e-07 
1.0751477631e-14 2.3776283272e-18 3.5841203098e-10 1.2748775688e-20 1.5045438491 0.015128164639 24.795617177 7.1750616315e-16 0.29817952136 
0.51980973926 3.1956917646e-09 21.326273451 -3.583815143 1.7577321001e-39 26.690649727 21.420559392 4.6272921532e-08 7.6315112504e-16 
2.5237543292e-15 3.9450035338e-08 0.00011342551016 2.2598001248e-05 11.450313608 9.8513686081e-52 11.846681334 0.028941265483 4.3820888281e-17 
3.0563969361e-18 -2.2231414409 5.8747327987e-07 21.526593562 1.836755291e-15 5.7828128926e-16 5.9723357968e-28 0.0040019839138 4.2318427112e-44 
2.5811897022e-28 1.422036712e-12 6.5934184988e-39 1.6472844544e-16 1.1592694146e-09 7.9949992523e-19 8.6957158563e-41 3.1605015416e-30 1.0112099406e-23 
2.2712306431e-33 2.069739817e-44 1.4344482643e-08 5.922832666e-11 0.74821950034 1.2731761682e-08 2.3476669187e-05 5.0141007021e-05 1.6327924414e-05 
0.0013267705846 7.221180675e-08 7.1134277802e-26 0.11684188186 16.220526777 5.9837870107e-43 1.253825067e-22 2.1900329402 0.019901459355 
17.226003083 2.1013061501e-205 7.750045408e-206 1.4921677889e-21 2.3775572615e-08 15.11185832 0.10187685901 -2.3647745894 0.010095381573 
0.74773495943 7.9042751671e-06 20.959102689 1.983071854e-07 -11.121266824 2.8658540771e-09 19.779377355 2.8645924414 0.11012365774 
16.446961028 3.3560530057e-12 2.7925378751 8.810399525e-17 3.5997968243e-09 24.290206087 1.799577944e-14 0.00045174641481 3.2501276589e-23 
15.391491128 8.207751152e-06 3.1271848227e-14 16.239461597 0.13787430451 2.3776283273e-18 4.6115498812e-10 -11.262311002 9.0404745166e-17 
1.4642028421e-05 3.1546567388e-14 1.104938334e-28 0.010095867602 2.654229193e-220 0.64638944518 1.428626459e-08 3.5196945147e-14 1.2757434153 
7.2721045497e-14 5.1999567688e-13 23.49098175 2.6743177266e-12 2.5336279012e-10 0.018215280705 3.1585477512e-20 1.1640311993e-17 7.3850086676e-20 
2.9845726647e-33 2.3881337423e-15 8.149714623e-20 1.5005548835e-35 23.43186236 0.044616084352 8.2122928085e-36 26.508378879 4.0622496197e-08 
1.0220375263e-08 -7.1070922813 0.00016691481582 0.075519015827 1.5339693459e-50 6.4854144493e-44 8.3122369982e-18 3.1219603842e-42 8.9848903296e-05 
5.8840715447e-10 3.6460493721e-22 4.5240494605e-13 0.0011244310465 3.7488192179e-16 7.8073220303e-16 26.533672464 7.2854512846 1.6360093356e-30 
3.4707926185 3.9642095822 3.3931630411e-27 -6.2391932986 3.5559699022 3.4938991913e-46 -10.070650625 5.4790299231e-28 13.154019548 
0.021773048109 4.5015732641e-06 7.8316515344e-33 5.3050707418 1.2555914597e-18 7.2400333009e-14 17.608891449 3.552451567e-64 0.00013795057765 
1.5588156893e-08 1.0548080484e-15 5.5677948541e-10 1.9037665964e-27 12.615092509 -4.8715936934 12.073945932 2.2642763943e-07 13.573994024 
7.451292771e-13 6.9105941952e-13 4.1553641263e-10 3.1411628044e-10 1.0432760597e-06 8.5772516684e-07 3.3358048118e-11 5.1645176128 4.7229859844e-06 
0.00010231885302 3.310715761e-05 0.00094043719616 8.1166366101e-22 10.441580223 1.3138552808e-26 6.7169463615 6.2777514975e-17 2.6608800684e-22 
7.9519896795e-25 -7.049919419 7.7567168263 4.8287992368e-08 1.5751371486e-06 1.4677068354e-15 1.8173196976e-45 3.3413757128e-06 7.6426502178e-54 
8.4858971051e-05 0.017631849176 1.1774717731e-14 2.9780203415e-05 4.7092395076e-06 11.68974565 2.8979130278e-09 4.096931183 1.3535291753e-12 
4.1988220432e-21 1.1645707403e-23 1.3120152794e-26 6.8556286265e-11 3.1689475126e-08 0.00031839471722 1.3121155658e-09 1.8177115219e-19 8.5188077406e-23 