# vtk DataFile Version 4.2
vtk output
ASCII
DATASET UNSTRUCTURED_GRID
POINTS 4342 double
-0.6 -0.6 0 0.6 -0.6 0 0.6 0.6 0 
-0.6 0.6 0 0 0 0 -0.58 -0.6 0 
-0.56 -0.6 0 -0.54 -0.6 0 -0.52 -0.6 0 
-0.5 -0.6 0 -0.48 -0.6 0 -0.46 -0.6 0 
-0.44 -0.6 0 -0.42 -0.6 0 -0.4 -0.6 0 
-0.38 -0.6 0 -0.36 -0.6 0 -0.34 -0.6 0 
-0.32 -0.6 0 -0.3 -0.6 0 -0.28 -0.6 0 
-0.26 -0.6 0 -0.24 -0.6 0 -0.22 -0.6 0 
-0.2 -0.6 0 -0.18 -0.6 0 -0.16 -0.6 0 
-0.14 -0.6 0 -0.12 -0.6 0 -0.1 -0.6 0 
-0.08 -0.6 0 -0.06 -0.6 0 -0.04 -0.6 0 
-0.02 -0.6 0 -8.881784197e-16 -0.6 0 0.02 -0.6 0 
0.04 -0.6 0 0.06 -0.6 0 0.08 -0.6 0 
0.1 -0.6 0 0.12 -0.6 0 0.14 -0.6 0 
0.16 -0.6 0 0.18 -0.6 0 0.2 -0.6 0 
0.22 -0.6 0 0.24 -0.6 0 0.26 -0.6 0 
0.28 -0.6 0 0.3 -0.6 0 0.32 -0.6 0 
0.34 -0.6 0 0.36 -0.6 0 0.38 -0.6 0 
0.4 -0.6 0 0.42 -0.6 0 0.44 -0.6 0 
0.46 -0.6 0 0.48 -0.6 0 0.5 -0.6 0 
0.52 -0.6 0 0.54 -0.6 0 0.56 -0.6 0 
0.58 -0.6 0 0.6 -0.58 0 0.6 -0.56 0 
0.6 -0.54 0 0.6 -0.52 0 0.6 -0.5 0 
0.6 -0.48 0 0.6 -0.46 0 0.6 -0.44 0 
0.6 -0.42 0 0.6 -0.4 0 0.6 -0.38 0 
0.6 -0.36 0 0.6 -0.34 0 0.6 -0.32 0 
0.6 -0.3 0 0.6 -0.28 0 0.6 -0.26 0 
0.6 -0.24 0 0.6 -0.22 0 0.6 -0.2 0 
0.6 -0.18 0 0.6 -0.16 0 0.6 -0.14 0 
0.6 -0.12 0 0.6 -0.1 0 0.6 -0.08 0 
0.6 -0.06 0 0.6 -0.04 0 0.6 -0.02 0 
0.6 -8.881784197e-16 0 0.6 0.02 0 0.6 0.04 0 
0.6 0.06 0 0.6 0.08 0 0.6 0.1 0 
0.6 0.12 0 0.6 0.14 0 0.6 0.16 0 
0.6 0.18 0 0.6 0.2 0 0.6 0.22 0 
0.6 0.24 0 0.6 0.26 0 0.6 0.28 0 
0.6 0.3 0 0.6 0.32 0 0.6 0.34 0 
0.6 0.36 0 0.6 0.38 0 0.6 0.4 0 
0.6 0.42 0 0.6 0.44 0 0.6 0.46 0 
0.6 0.48 0 0.6 0.5 0 0.6 0.52 0 
0.6 0.54 0 0.6 0.56 0 0.6 0.58 0 
0.58 0.6 0 0.56 0.6 0 0.54 0.6 0 
0.52 0.6 0 0.5 0.6 0 0.48 0.6 0 
0.46 0.6 0 0.44 0.6 0 0.42 0.6 0 
0.4 0.6 0 0.38 0.6 0 0.36 0.6 0 
0.34 0.6 0 0.32 0.6 0 0.3 0.6 0 
0.28 0.6 0 0.26 0.6 0 0.24 0.6 0 
0.22 0.6 0 0.2 0.6 0 0.18 0.6 0 
0.16 0.6 0 0.14 0.6 0 0.12 0.6 0 
0.1 0.6 0 0.08 0.6 0 0.06 0.6 0 
0.04 0.6 0 0.02 0.6 0 8.881784197e-16 0.6 0 
-0.02 0.6 0 -0.04 0.6 0 -0.06 0.6 0 
-0.08 0.6 0 -0.1 0.6 0 -0.12 0.6 0 
-0.14 0.6 0 -0.16 0.6 0 -0.18 0.6 0 
-0.2 0.6 0 -0.22 0.6 0 -0.24 0.6 0 
-0.26 0.6 0 -0.28 0.6 0 -0.3 0.6 0 
-0.32 0.6 0 -0.34 0.6 0 -0.36 0.6 0 
-0.38 0.6 0 -0.4 0.6 0 -0.42 0.6 0 
-0.44 0.6 0 -0.46 0.6 0 -0.48 0.6 0 
-0.5 0.6 0 -0.52 0.6 0 -0.54 0.6 0 
-0.56 0.6 0 -0.58 0.6 0 -0.6 0.58 0 
-0.6 0.56 0 -0.6 0.54 0 -0.6 0.52 0 
-0.6 0.5 0 -0.6 0.48 0 -0.6 0.46 0 
-0.6 0.44 0 -0.6 0.42 0 -0.6 0.4 0 
-0.6 0.38 0 -0.6 0.36 0 -0.6 0.34 0 
-0.6 0.32 0 -0.6 0.3 0 -0.6 0.28 0 
-0.6 0.26 0 -0.6 0.24 0 -0.6 0.22 0 
-0.6 0.2 0 -0.6 0.18 0 -0.6 0.16 0 
-0.6 0.14 0 -0.6 0.12 0 -0.6 0.1 0 
-0.6 0.08 0 -0.6 0.06 0 -0.6 0.04 0 
-0.6 0.02 0 -0.6 8.881784197e-16 0 -0.6 -0.02 0 
-0.6 -0.04 0 -0.6 -0.06 0 -0.6 -0.08 0 
-0.6 -0.1 0 -0.6 -0.12 0 -0.6 -0.14 0 
-0.6 -0.16 0 -0.6 -0.18 0 -0.6 -0.2 0 
-0.6 -0.22 0 -0.6 -0.24 0 -0.6 -0.26 0 
-0.6 -0.28 0 -0.6 -0.3 0 -0.6 -0.32 0 
-0.6 -0.34 0 -0.6 -0.36 0 -0.6 -0.38 0 
-0.6 -0.4 0 -0.6 -0.42 0 -0.6 -0.44 0 
-0.6 -0.46 0 -0.6 -0.48 0 -0.6 -0.5 0 
-0.6 -0.52 0 -0.6 -0.54 0 -0.6 -0.56 0 
-0.6 -0.58 0 0.25 -0.58267949192 0 -0.25 -0.58267949192 0 
-0.24969338163 0.58271630631 0 0.58313820224 0.25089999788 0 -0.58073798855 0.23055415423 0 
0.23 0.58267949192 0 0.5822727489 -0.23023532651 0 -0.58232885758 -0.22986293355 0 
-0.13 -0.58267949192 0 0.58091085312 0.12866705289 0 -0.13050081 0.58443309409 0 
0.13 -0.58267949192 0 0.11 0.58267949192 0 0.58128887437 -0.11185352307 0 
-0.58641004823 0.11046978504 0 -0.58097603768 -0.11235367818 0 -0.01 0.5841811861 0 
0.01 -0.58267949192 0 0.58217507245 0.011050809949 0 -0.58206506685 -0.010494327869 0 
0.58255589861 -0.33012459525 0 -0.58098267687 0.33246863147 0 0.33 0.58267949192 0 
-0.58090018381 -0.32734039494 0 0.35 -0.58267949192 0 0.58210978525 0.34851718814 0 
-0.34984356206 0.58269328777 0 -0.35 -0.58267949192 0 -0.58404031657 -0.41125547479 0 
0.58404031657 -0.41125547479 0 0.41 0.58267949192 0 -0.58127371569 0.40748932397 0 
0.43 -0.58267949192 0 0.58287041801 0.42966930632 0 -0.43030661837 0.58271630631 0 
-0.43 -0.58267949192 0 0.49 0.58267949192 0 0.58119455181 -0.49272606834 0 
-0.58196591894 0.48785347999 0 -0.58132747275 -0.49216380446 0 0.58099079541 0.19297246443 0 
-0.18926154554 0.58413656679 0 0.05 0.58267949192 0 0.19 -0.58267949192 0 
-0.07 -0.58267949192 0 0.58212565717 -0.051217328366 0 -0.07 0.58267949192 0 
0.58245912871 0.070013739955 0 0.07 -0.58267949192 0 0.58168449499 -0.17128271923 0 
-0.58574378526 0.05125913651 0 0.17050081 0.58443309409 0 -0.58168449499 -0.17128271923 0 
-0.58573295936 0.16883725031 0 -0.19 -0.58267949192 0 0.49 -0.58267949192 0 
-0.49050081 0.58443309409 0 0.58415322569 0.48921568047 0 -0.49 -0.58267949192 0 
0.53 -0.58267949192 0 0.58203286059 0.53119351335 0 -0.53 0.58267949192 0 
-0.58222913959 -0.53018403998 0 0.58202539473 0.28969699417 0 -0.29 0.58267949192 0 
-0.58451963751 -0.45057023735 0 -0.58267949192 -0.07 0 -0.29 -0.58267949192 0 
-0.03 -0.58267949192 0 0.39 -0.58267949192 0 0.58307204747 0.39068583015 0 
-0.39 0.58373814012 0 0.29 -0.58267949192 0 0.58208722445 -0.45065236781 0 
0.45042926572 0.58129593389 0 -0.58211115223 0.44955595746 0 -0.58432719917 -0.36932980655 0 
-0.58406793967 -0.26883049013 0 0.5820526686 -0.36901719046 0 0.37 0.58267949192 0 
-0.5823078615 0.36998422007 0 -0.39 -0.58267949192 0 -0.58211498987 0.271305057 0 
-0.53 -0.58267949192 0 0.58222913959 -0.53018403998 0 0.53 0.58373814012 0 
-0.58219774606 0.53090792334 0 0.58030324732 -0.28813008885 0 0.29050081 0.58443309409 0 
-0.58188605505 -0.56816348762 0 0.56922649731 -0.58312607391 0 0.58067979276 0.57009350437 0 
-0.57009384201 0.58146184644 0 0.54987108288 -0.58275392226 0 0.53997851381 -0.5653713889 0 
0.51999641897 -0.56536105136 0 0.52999582213 -0.54804088787 0 0.50999870685 -0.54803922237 0 
0.51999908816 -0.53071849415 0 0.4999996325 -0.53071817987 0 0.50999978678 -0.51339758273 0 
0.48999990321 -0.5133975155 0 0.49999994833 -0.49607698138 0 0.47999997526 -0.49607696583 0 
0.48999998726 -0.47875645082 0 0.46999999375 -0.47875644708 0 0.47999999684 -0.46143593722 0 
0.45999999843 -0.4614359363 0 0.46999999921 -0.44411542777 0 0.44999999961 -0.44411542755 0 
0.4599999998 -0.42679491936 0 0.4399999999 -0.4267949193 0 0.44999999995 -0.4094744112 0 
0.42999999998 -0.40947441118 0 0.43999999999 -0.3921539031 0 0.41999999999 -0.3921539031 0 
0.43 -0.37483339502 0 0.41 -0.37483339502 0 0.42 -0.35751288694 0 
0.4 -0.35751288694 0 0.41 -0.34019237886 0 0.39 -0.34019237886 0 
0.4 -0.32287187079 0 0.38 -0.32287187079 0 0.39 -0.30555136271 0 
0.37 -0.30555136271 0 0.38 -0.28823085464 0 0.36 -0.28823085464 0 
0.37 -0.27091034656 0 0.35 -0.27091034656 0 0.36 -0.25358983849 0 
0.34 -0.25358983849 0 0.35 -0.23626933041 0 0.33 -0.27091034656 0 
0.32 -0.25358983849 0 0.31 -0.27091034656 0 0.3 -0.25358983849 0 
0.29 -0.27091034656 0 0.28 -0.25358983849 0 0.27 -0.27091034656 0 
0.26 -0.25358983849 0 0.25 -0.27091034656 0 0.27 -0.23626933041 0 
0.24 -0.25358983849 0 0.23 -0.27091034656 0 0.22 -0.25358983849 0 
0.21 -0.27091034656 0 0.2 -0.25358983849 0 0.19 -0.27091034656 0 
0.18 -0.25358983849 0 0.17 -0.27091034656 0 0.19 -0.23626933041 0 
0.16 -0.25358983849 0 0.15 -0.27091034656 0 0.14 -0.25358983849 0 
0.13 -0.27091034656 0 0.12 -0.25358983849 0 0.11 -0.27091034656 0 
0.1 -0.25358983849 0 0.09 -0.27091034656 0 0.08 -0.25358983849 0 
0.07 -0.27091034656 0 0.06 -0.25358983849 0 0.05 -0.27091034656 0 
0.04 -0.25358983849 0 0.03 -0.27091034656 0 0.02 -0.25358983849 0 
0.01 -0.27091034656 0 -1.7474921972e-14 -0.25358983849 0 -0.01 -0.27091034656 0 
-0.02 -0.25358983849 0 -0.03 -0.27091034656 0 -0.04 -0.25358983849 0 
-0.05 -0.27091034656 0 -0.06 -0.25358983849 0 -0.07 -0.27091034656 0 
-0.08 -0.25358983849 0 -0.09 -0.27091034656 0 -0.1 -0.25358983849 0 
-0.11 -0.27091034656 0 -0.12 -0.25358983849 0 -0.13 -0.27091034656 0 
-0.14 -0.25358983849 0 -0.15 -0.27091034656 0 -0.16 -0.25358983849 0 
-0.17 -0.27091034656 0 -0.18 -0.25358983849 0 -0.19 -0.27091034656 0 
-0.2 -0.25358983849 0 -0.21 -0.27091034656 0 -0.22 -0.25358983849 0 
-0.21 -0.23626933041 0 -0.23 -0.23626933041 0 -0.22 -0.21894882233 0 
-0.23 -0.27091034656 0 -0.24 -0.21894882233 0 -0.23 -0.20162831426 0 
-0.25 -0.20162831426 0 -0.24 -0.18430780618 0 -0.26 -0.18430780618 0 
-0.25 -0.16698729811 0 -0.27 -0.16698729811 0 -0.26 -0.14966679003 0 
-0.27 -0.20162831426 0 -0.28 -0.14966679003 0 -0.27 -0.13234628196 0 
-0.29 -0.13234628196 0 -0.28 -0.11502577388 0 -0.3 -0.11502577388 0 
-0.29 -0.097705265805 0 0.22 -0.28823085464 0 0.1 -0.28823085464 0 
-0.1 -0.28823085464 0 -0.22 -0.28823085464 0 -0.24 -0.28823085464 0 
0.02 -0.28823085464 0 -0.31 -0.13234628196 0 -0.31 -0.097705265805 0 
-0.3 -0.080384757729 0 -0.28 -0.080384757729 0 -0.29 -0.063064249654 0 
-0.31 -0.063064249654 0 -0.3 -0.045743741578 0 -0.28 -0.045743741578 0 
-0.29 -0.028423233502 0 -0.27 -0.028423233502 0 -0.28 -0.011102725427 0 
-0.3 -0.011102725427 0 -0.29 0.0062177826491 0 -0.27 0.0062177826491 0 
-0.28 0.023538290725 0 -0.26 0.023538290725 0 -0.27 0.0408587988 0 
-0.25 0.0408587988 0 -0.26 0.058179306876 0 -0.24 0.058179306876 0 
-0.25 0.075499814952 0 -0.23 0.075499814952 0 -0.24 0.092820323028 0 
-0.22 0.092820323028 0 -0.23 0.1101408311 0 -0.21 0.1101408311 0 
-0.22 0.12746133918 0 -0.2 0.12746133918 0 -0.21 0.14478184725 0 
-0.19 0.14478184725 0 -0.2 0.16210235533 0 -0.18 0.16210235533 0 
-0.19 0.17942286341 0 -0.17 0.17942286341 0 -0.21 0.17942286341 0 
-0.2 0.19674337148 0 -0.22 0.19674337148 0 -0.21 0.21406387956 0 
-0.23 0.21406387956 0 -0.22 0.23138438763 0 -0.24 0.23138438763 0 
-0.23 0.24870489571 0 -0.21 0.24870489571 0 -0.25 0.24870489571 0 
-0.27 0.075499814952 0 -0.22 0.26602540378 0 -0.2 0.26602540378 0 
-0.21 0.28334591186 0 -0.19 0.28334591186 0 -0.31 0.0062177826491 0 
-0.23 -0.16698729811 0 0.11 -0.23626933041 0 -0.2 0.30066641994 0 
-0.18 0.30066641994 0 -0.23 -0.30555136271 0 -0.25 -0.30555136271 0 
0.39 -0.37483339502 0 -0.09 -0.23626933041 0 -0.19 0.31798692801 0 
[...]
CELL_DATA 8442
FIELD FieldData 1
flux 1 8442 double
4.0501132923e-07 0.0080364013771 0.077024735367 1.8280374736 0.52394067289 4.3083598463e-07 0.5464501294 0.14570095347 3.36043488 
0.40383700163 0.0045509637064 0.0015910526284 0.5393486051 0.54768730265 5.1568248703e-09 0.0057701952269 2.5421454467e-05 3.9844488421 
0.00042918440737 0.38017947508 0.60095861913 5.1131116327e-09 1.4783806072e-07 1.0642688895e-06 0.012889064993 1.4343136959e-07 3.1111778761e-06 
0.013585163495 0.0018258028083 0.30395581441 0.0013277472316 5.6939197365e-05 0.71552294043 0.69780397116 0.60645351831 0.87278779522 
0.87277965026 0.45013174446 0.26318357449 0.26626674259 0.014959492315 2.6690974763e-09 7.755995827e-05 6.691989959 0.092899616562 
0.05869592149 0.067754856489 1.9055076148e-08 1.8779604027e-08 0.00035935022752 0.032726745062 0.00096887930164 5.0799507693e-08 4.9134230768e-08 
0.00032116263875 0.25596993754 0.00015941960157 0.93646955087 0.55089287591 0.5363036179 0.75541231091 3.7051417467e-11 0.51917547447 
0.55569146936 3.214598904e-06 0.0032245951918 2.450728359e-05 7.6838105054e-10 0.046638654943 0.31097881526 0.28874755606 3.0945721002e-06 
0.030379600531 0.16004618777 0.0099700713436 4.8417824926e-07 0.49802231927 5.5719051483 0.47977745798 0.48774802265 0.78080426034 
0.63331741415 2.5026384766e-07 0.12993711513 0.06718298226 0.45174040032 0.64954820133 1.1596344652e-08 1.1673188292e-08 0.2457758723 
0.24790113956 0.017133279307 1.3318919462 5.8158518641e-05 5.6595291538e-05 0.4908341623 1.4601230345 0.24913123316 0.24731195572 
0.0021375516541 2.9073977458e-11 0.010297914958 0.051094215222 0.035837368026 9.1617813202e-06 0.050056174199 0.0005085724898 0.62407790624 
4.2384771629e-08 4.1860122886e-08 2.7471074728e-09 0.00017570247831 2.1519454153e-07 2.0540073369e-07 8.8701544309e-07 9.3263042699e-06 3.7626061214 
0.25588582421 0.65149217258 0.65735559446 6.1643554755 0.0041928251708 7.1249634352 0.37860169336 0.38273550461 0.86551183951 
0.4035699097 0.40215598705 0.44582483983 0.83889277597 0.022302692058 0.16972387432 6.4857481053e-10 0.0011555364965 0.4460535514 
0.0005196808205 9.1589655673e-07 2.4101207826e-05 2.3370803802e-05 0.0028337715921 0.47059920433 52.269171916 52.250439172 1.9743039231 
0.41105777067 0.40872492064 3.4325495503e-09 0.004537197512 0.76464552667 0.033512917032 7.8883481134 0.00014744736897 0.00038634606528 
7.3208413878e-08 7.2619117802e-08 6.2666356114e-08 1.2411233691e-07 0.35419862121 0.15239411545 0.00013385680267 0.00014407103648 0.86242014279 
1.5645918537e-07 1.5845867832e-07 0.032381575959 2.3226619036e-05 4.4849315495e-07 0.004535429877 0.66853748675 4.2050734691 1.3486935088e-06 
0.060915638234 1.088882088 52.461052164 52.465061536 5.2424973025e-07 52.504435715 52.48033255 0.24703918735 5.1678244598e-07 
0.00021809380795 0.40610212136 0.40206207621 3.4038511146e-10 4.1280642618 0.0047204460109 1.4079524524e-10 0.0014930334631 1.4541653363e-05 
1.6576901468e-06 3.5012812444e-09 3.4825359633e-09 0.00047567929887 1.594172444e-06 4.6931940573e-06 0.00025641757803 0.0028353428006 0.036286996138 
1.1348838603e-05 0.22776251952 0.0057113695109 0.015274513016 0.928236983 0.67032044033 0.53318770377 0.93699803454 0.97070972633 
1.9262654448 0.90600441581 0.39627503635 0.24812677741 2.0344721044 0.12655987477 0.79687142361 0.51438377117 0.13915918067 
1.3035359744 0.3750190703 8.7691392726e-05 1.0333585693 6.7365722533e-07 4.2679945763e-06 4.6184637089e-06 3.9856380485e-05 5.0180970943e-06 
0.011880063739 0.146110831 11.48587436 19.063422286 18.836663121 11.725638327 20.599218862 4.8782829856 20.40224578 
0.0074380587446 0.10052470586 1.8221367356 4.6674764725 6.2031426558 18.044280747 16.002873111 18.725361145 14.904773003 
18.385105287 19.127669638 13.609300904 1.1561706198 16.009414481 0.022873799459 16.592608657 0.1773499279 14.92785182 
9.1008463813 0.013397428303 7.1303279021 1.9774926255 12.450760548 2.9632403791 0.043861716482 0.0035544385101 9.9470072281 
1.7721177569e-05 14.04678914 14.288221716 9.0737327183 6.1951282378 1.3196185152 12.43615035 3.7820525217 11.366580566 
11.920380998 0.27704448522 11.07675003 12.315308651 3.5224760169 14.224585983 11.040039534 0.052844103639 1.3986579611e-07 
4.4648457959e-08 15.377937826 0.30938642989 0.455475081 14.380689426 10.860583593 16.480731681 0.0055011079091 17.780672917 
16.550517851 8.7444711922 3.7142298618 15.78393289 20.583572663 0.75684789082 21.398635408 8.1690500629 10.607518176 
20.494199343 11.078000004 16.440976305 4.8748313835e-07 20.928072211 7.73857449 15.060386307 21.063477368 13.3982804 
18.496253754 4.11783498 3.4442544398 0.01041264398 18.103882709 2.5824976301 6.0331764148 1.636535831 11.153263415 
3.8832874563 8.4032006151 15.644299972 23.078088507 11.307764002 9.8078410108 5.3253519544 19.023003322 20.166373754 
4.6943976657 17.574935079 12.058787578 18.400289795 19.083654963 2.0152033294 17.882048409 13.578192697 3.3165081174 
6.4972806062 22.664518055 9.5078935867 16.135601115 16.634531844 20.314239929 20.023632292 3.3390574007 15.847358758 
6.4599471327 13.684167171 16.023840439 9.6861604926 13.630244085 16.708409084 17.785313593 12.477325124 4.0139636357e-08 
10.408653202 17.138226151 9.7029285714 0.035400028863 16.492655973 15.450150461 11.563723514 10.808297331 2.3540935366 
15.714620685 11.038910484 17.818061915 0.28417843891 14.286407464 19.176629179 14.951164213 13.8194932 1.4993480048 
13.338831389 2.1719615153 3.7835431828 15.310556057 20.256593446 15.743636032 16.555687576 8.3554267559 12.619522728 
2.9139463564 13.043592016 1.0945493793 0.0020792124554 18.666234348 12.70774817 12.553412283 11.752946458 11.110238959 
18.300158027 6.58392039 0.01335800872 12.113640773 13.193816696 17.923308476 7.3279645472 16.946352134 0.00037386224646 
2.4056083301 9.2717147904 6.0194140328 15.255941731 12.436171579 16.191344023 12.819149279 0.0088737834782 12.159731842 
15.10755975 0.0070452671854 10.255731308 5.9060414747 14.220503908 16.015963339 15.54759773 2.4971952135 16.215908234 
9.9715007615 23.659738515 18.106296253 5.3244618765 3.3211157744 17.948711902 16.07310882 18.545003237 17.064993428 
0.020044750243 10.552484649 11.399300378 11.92818694 16.790163404 19.045827371 9.439851918 3.3368601048 1.2408931535 
14.15281978 0.0083010753988 10.861361655 3.1302748815 8.6727574134 17.616100304 6.7746602208 0.016564458799 0.81616474154 
2.9369592522 11.549465913 17.168429101 9.4230928013 9.0088668694 0.00082593601384 20.523520171 15.400185347 11.622641682 
4.5414226519 0.016282837167 17.032685937 13.326286812 1.0337626023e-08 9.6665932028 12.821415964 13.843431373 3.1454538094 
19.082119397 9.455028053 18.287709013 17.207278363 9.0726862685 10.592913784 15.216309856 0.72479863981 12.932935785 
8.9771676573 10.860968431 9.7033896878 2.1050577342 20.969043738 3.2950317002 16.450615726 19.055766107 12.76668569 
11.44362974 15.324580504 26.857643072 0.041079027967 1.0804768626 8.730079329 13.046072553 8.9232084173 0.63546352785 
17.163697206 13.547305241 8.54431305 21.370040034 12.214489 14.989449438 0.0016040995305 10.453166692 0.018006589013 
16.387190504 0.0005698420702 8.8269662722 17.290809516 13.981827947 0.50617054299 17.902704907 14.219264746 18.451946747 
1.5353495745e-07 11.090354681 11.026668875 0.83933873903 9.3114581526 9.1545688623 16.238383396 9.4693952303 14.083968383 
0.086419824293 11.979858925 8.55068329 16.940948202 12.33386448 10.431243815 15.861476161 0.072013361402 2.6503643008 
10.674002546 14.334421473 15.436650834 16.950600615 9.0891897365 18.345788589 17.500840003 0.11638373144 16.758474885 
0.4837569389 20.991097354 9.4715185464 18.293490878 16.096914513 20.401861153 24.690240526 20.490844257 20.600407607 
22.075791661 11.057139654 8.6738267686 10.930720113 15.917866949 2.5275972034 20.654443355 0.00050627637809 17.618911963 
2.7635804038 19.306973744 15.456951183 14.044971542 10.661798582 2.301161181 0.21867453476 2.4124142047 15.474148703 
8.8091667197 13.168082242 5.5635567377 14.577894255 15.892172465 0.0069992248704 8.9175216114 1.6077724 11.539259004 
0.00083073417276 11.188184214 7.2766480149 10.384542854 11.556351923 9.2176681283 17.87989966 0.001288551742 20.402892225 
3.7336554807 13.886987988 11.243212592 0.0039438952397 14.265468444 3.2969689265 7.9329659497e-09 18.103082629 22.929976926 
4.0567450137 17.312829016 14.442149523 14.083384808 19.134285471 14.693092148 0.88599255664 11.528271802 18.544234962 
16.688537962 18.692027319 6.8500281911 9.7964590986 7.2443502492 14.368256552 0.00034067411487 2.9320215082 0.33920276762 
19.960931606 10.495869199 10.459597168 4.1727516549e-06 0.00030279726915 15.295011558 1.2804927428 14.734170437 19.972828215 
5.6095737961 15.73547905 14.4888109 6.2502655175 1.2619996518 16.251105772 18.378913762 11.520366331 20.796800378 
15.445028653 21.078781169 18.719825548 16.005098407 0.0041088843059 0.0026387253422 12.831981814 14.431173588 19.389944303 
16.415367244 13.715128932 17.868785597 12.916143112 1.1501366694 11.770605664 0.00025510562807 11.342195177 0.0042076798871 
13.386602286 13.895109723 12.085840098 16.422929581 1.6414859119 2.6019267683 13.816281379 9.6426026658 9.9923723061 
15.056053303 1.9531905977 1.8836263995 17.377396985 10.219633687 9.9082663823 16.840401122 11.617222707 0.11258180648 
0.97421480769 11.021752966 0.070752117683 10.951155139 19.259249266 12.964407622 8.3208805129 0.0055302210123 21.55351276 
1.9540241204 16.707366924 20.466522812 2.2544322431 10.015806155 10.446573261 3.7488677684 0.27626811285 13.617252479 
1.2340126679 18.544612006 9.8186630619 10.595599544 10.779998063 7.2166122789 2.8264696261e-05 17.026887971 3.6849728693 
9.9432361819 12.28560876 6.9307968388 15.228527402 1.9009872402 15.327202421 0.017990310751 10.275174732 9.749150112 
7.858017215 11.97586313 0.0088810496407 9.7468921187 10.982526996 13.833454043 20.585035275 4.6840210976 1.1805911665 
15.121719995 3.235978106 9.3538326162 11.397866903 8.7648838501 9.918404265 15.453029691 18.077001492 21.081410641 
13.442797975 16.971550385 0.033451139072 21.541172603 8.9710040373 12.597732573 10.706281255 0.00075400439217 12.552299211 
21.919581487 10.011376996 0.52461334056 14.921506341 0.017852227651 1.2790954274 15.991879049 9.4000565676 10.229574395 
17.039583453 10.023189326 0.2958231144 1.2809764081 7.9402571928e-08 2.0304632978e-09 18.951444382 0.86500591479 9.3228374904 
10.447018327 16.995230832 9.3509571732 15.981404238 20.984335648 12.887739186 21.452778622 19.466099078 13.033827189 
0.22466579142 17.454381224 16.264042507 14.562663954 11.269648123 12.315059979 17.00504278 0.117944692 10.262746793 
20.973850631 0.59059571319 19.350922161 3.9273582941e-09 10.505741952 7.2788975804 0.15041162037 11.577290536 0.0082855815754 
10.243997987 12.997564439 16.349566359 10.313708432 14.844465544 13.982143475 19.818801534 0.95269354433 11.967255972 
12.898859458 9.1286481625 21.742340102 0.29102738035 11.90545443 6.9787983763 11.999549178 6.6286944286 1.2945660814 
12.270177925 4.5823606907 4.8717401816 0.18857668667 10.984983479 9.8080833952 11.587055311 20.827276293 19.214386114 
0.022886879192 13.53825715 4.9950927605 9.3047512563 17.911494687 16.985963464 12.610001967 18.896022976 3.8825465086 
0.0087433544309 0.0021484679128 10.288481252 15.085230524 17.167245697 0.0034013633047 9.5256015163 12.467387267 17.783590269 
19.681819625 11.960385694 5.0368522176e-05 16.17319429 9.9915167331 15.91392613 0.95359428019 17.373361278 1.0875866581 
0.11239136218 0.00033813905758 0.00080490548798 20.321315503 0.056339974828 2.6228749578 20.134779132 16.098110755 11.823572296 
4.8750941156 16.853021644 10.797549738 20.861288599 10.724230961 0.00011949861185 15.485129134 15.691789247 0.00020722585402 
0.38880037037 11.805690245 12.61368454 18.137705638 13.31194997 3.1892171494e-08 11.06591263 6.930801106 15.107806028 
11.363005771 1.3706761978 18.159995139 18.375702424 13.003791163 8.077390827 3.2924371903 0.19200505138 1.5843725473 
11.423048529 0.52446475368 3.3759854082 10.210655933 0.5021984289 7.086946171 0.0016273572535 0.17086143738 0.1479349535 
9.1136973824 16.726494994 0.00033839922715 2.73394756 12.484395254 18.695414526 10.977014294 10.020791685 11.471053508 
16.280521561 16.446945387 18.014225121 8.4638710581 17.758684564 17.034765584 14.705282709 17.638871489 1.4013838359 
13.402180025 0.043886324628 15.480097746 22.87826914 10.858763153 10.853825119 20.827230301 14.435774554 0.003344370228 
0.10880738263 15.474859964 15.851362448 22.921231395 0.97067423932 0.02928195143 9.7832017968 0.004210124048 17.029311112 
0.81498095104 1.3859183149 5.4839112671e-08 10.98459653 22.474759207 1.5436358206e-06 0.35541380124 10.250338628 3.8455188411 
19.147951556 12.665761703 9.7208033667 0.0018930749689 4.8456377389e-06 0.0018941728341 16.185033474 0.00083368331672 16.588690548 
10.809735969 20.669372006 11.206357882 13.318558678 9.0440608602 11.87398501 9.1742282852 11.508108596 9.0990974492 
15.231195249 12.955099435 10.35723919 0.0085049520596 6.7864368474 11.618535692 0.0010570952949 18.246748049 4.3587864878 
0.00050607575745 2.2238672855 0.03812623205 0.016558661353 21.611590589 10.955246486 14.615821307 7.7066017987 3.8126011365 
0.1862646131 4.9476957532 0.96187994075 0.65869649197 9.0739691733 8.1035778249 1.0933936215 1.5158984866 9.9658422561 
10.863072286 4.4805957409 0.53571125879 3.4089051033 0.016209902789 9.0334937266 0.00034170304591 12.927824295 2.735088993 
12.166211529 14.128210807 6.7172977296 13.335271166 25.684497065 1.3970002925 10.788951644 0.27739657285 15.076469032 
15.002156264 0.0081443861203 12.453434121 20.952754874 18.892387678 15.027221469 9.4856724094 17.975122774 24.620842793 
16.807266075 18.451145711 14.29902763 10.64443337 19.209453359 1.437094755 10.229931236 8.8401998412 2.8817033397 
14.559525064 0.00085266257143 12.477837896 13.382709281 2.4503595325 2.2249769954 10.959619578 10.250798724 0.005249113352 
0.81420420603 9.7739176894 10.872701854 21.807237839 0.62079394045 3.8992283416 14.9020151 0.790770553 18.891902439 
0.00020715852918 16.80888515 6.2187476014 10.507261563 7.4153110595 0.00082657208756 10.144917472 20.520864532 19.157878483 
7.1291871517 3.0069494817 11.733574298 1.2734971453 14.661707961 19.021983779 9.5230825999 1.5393613374 18.662077882 
11.5030879 15.979419917 16.871265804 10.43675082 0.010629497543 9.7358626219 11.617745592 15.044719683 7.8033843637 
12.378467608 12.692444405 17.716687965 8.3349685377 11.076289109 7.5409912804e-05 19.683210301 13.115283954 5.6915743743 
3.4075124048 9.454315624 7.6822829191 11.603227494 6.3791233103 3.1969712693 0.35119491998 18.842940143 0.0017463527999 
0.1970831512 7.2867300155 0.013339569842 8.3861470111 8.2476922126 3.5889442506 0.0018964317126 0.13172149099 0.35697475113 
0.037483938652 0.001678698668 15.538058661 25.498714527 18.097389186 9.6269178886 15.461967492 12.342476291 21.771546499 
17.032577643 17.997974036 0.89957628733 10.158331528 11.180131245 0.0028371764822 1.6781421531 14.450748861 9.2214192925 
13.982633107 3.9384574481e-09 1.339246871e-07 2.0424677018 16.61458185 10.433697258 16.191879111 10.600699052 13.778523004 
18.096079439 14.035113787 14.447148656 7.7023935428 10.104791013 6.1377723076 10.457406821 9.3249985772 10.755538083 
11.215440888 7.6338674635 9.79638015 6.4586987813 10.601046332 18.036706968 7.2700575764 20.642756233 1.6664487274 
17.068901584 20.580835572 10.620438275 10.955494609 12.428400648 3.0050374798 9.9362042161 9.7763046624 6.2463737098 
11.295818523 11.28334072 0.36557008837 17.298601744 1.1906504225e-09 12.703940524 5.6816019904 7.2795189219 12.823879302 
12.775274877 19.952013978 9.9238224611 10.039893185 14.321699724 12.285252136 2.8095101234 5.9491429115 4.6721232268 
0.077057302059 7.3522425874 1.5973327982 0.039084274428 9.0961748332 19.126014331 0.015161804533 15.537027354 11.431979284 
17.90989719 10.338925511 19.792685932 17.960914719 3.2272697297e-05 0.00083249976922 5.8938175921 0.00098810876513 14.45229389 
10.92424494 0.50708043326 10.685642213 12.751686367 3.8972408944 6.7983553831 9.6687036034 15.950085572 0.21636452907 
13.357584097 15.724411735 0.78772365908 9.4821912348 10.526767334 0.00064829832897 11.5100498 0.18644872592 15.97070799 
16.176520727 8.5544993212 0.095007218191 14.448750098 6.3224599007 9.2069363517 26.889701536 4.4130730971e-07 24.738793618 
18.63164928 3.3703080668 16.766327631 0.19699001525 10.886443315 13.442356523 11.188721201 11.711719005 11.809484404 
9.5173445581 10.167240966 17.671040365 12.879613066 21.623916622 7.4848788955 9.5248135904 10.787772531 16.19387567 
8.9576500955 11.474831623 15.130471585 2.1183718815 11.247152374 0.3072957203 14.288375164 4.2712555191 1.4616797686 
1.3836610609 10.646070572 9.9018695684 12.825969741 13.823445096 6.05712378 0.00070567502687 19.262736462 8.7399241936e-06 
19.660399675 10.039895248 9.1589078356 8.2972665308 8.2059184546 8.9759896642 11.992499409 12.632008516 6.8456506251 
1.0326740955 1.7714382805 0.94631196809 10.423909313 8.1257175523 17.46906222 6.0327403126 1.8826960306 2.4096554907 
0.18628437865 5.0170959241 14.866095463 15.433466773 7.9707586279 7.8583352086 9.5293674878e-05 0.0044531362119 1.5308373352 
11.4737275 20.577535488 17.409238097 2.9583172206e-07 15.122804313 18.371816993 2.017796977 0.062249447379 15.270707741 
15.269634156 0.64037605437 16.930494775 19.21104319 16.157571345 12.923405838 0.2306545757 0.035513620183 3.1895031116e-06 
6.493804242 22.117629142 27.259364674 10.873097131 3.0958514258 11.556034921 11.373241007 2.4471997996 2.9339740057 
5.1240756409 3.8166691931 4.9086445699 9.5407209645 11.091392337 0.045833548952 8.8112285103 0.11462883767 13.260168782 
2.7533001601 15.20194194 4.2722961443 12.876357318 20.590151363 0.0055650813748 14.042648466 10.457946267 1.8941342688 
20.82199753 7.485178625 11.865795195 9.7216165901 28.500955616 3.5561193407 17.822806623 1.5527798824 2.2220475548 
8.887622472 10.817754343 10.185210943 9.598166807 12.756186372 11.174302324 2.194519212 16.044875418 0.42487227814 
0.00015672592654 16.459286281 6.2521320699 0.0099473407761 0.0013342221083 6.5413295624e-05 0.00092764238267 0.25065979624 21.685105628 
12.455213576 0.0009618350746 1.5704690203 2.2300722596 7.7022345509 14.8550622 0.15326646871 4.0167274399e-07 0.10346669129 
29.530474298 9.6577556823 0.57767429608 14.234417287 8.7972195803 10.994063025 3.3187193932 13.091009699 10.504822942 
0.07812083743 0.2415925402 0.010408735399 15.556288582 27.571915028 15.807796108 1.0304409702 28.549962901 2.3974317572 
0.03536379437 0.62455487724 0.33634232611 1.6675350229 12.470459899 9.3453315051 13.56261363 14.731059087 7.0903015195e-07 
10.988398324 12.552086999 15.26630288 14.444189108 0.079646356052 20.106945524 0.28021331741 8.990570865 3.0476981362 
12.018861984 0.00061577314732 9.3718118841e-05 9.5407666961 1.8665819443 9.445651964 5.1177712612 17.721813122 13.918660621 
2.3569007337 10.157723635 14.117944975 4.7212180009 10.183195087 10.621783444 0.0015119995373 14.822134469 13.638954936 
18.270499834 19.173740853 0.59537964485 10.375554216 0.23957918196 2.0124563236 4.8564723399 9.5411940857 0.00016801975031 
5.244355759 1.9578069302 14.638860506 12.487042873 2.3679284706 21.019805119 0.0025331074438 0.91166791207 9.4219558891 
0.21791247012 1.3903614854 8.6657161276 14.639678342 17.476909311 0.64175273012 4.1903491237 0.34323581149 3.9992320757 
4.2264539081 3.790672141 2.5644807306 9.4681335124 14.231897595 0.68982146532 17.8467512 0.02433206356 2.5010893638 
12.953552672 21.252941316 1.4160347766e-07 7.4874523221 10.268273362 14.159716552 3.9523286061 10.489922846 6.8940564464 
3.1277147799 4.189784768 2.2513162533 2.7282923268 1.601243351 0.16011313646 5.3443086695 0.00019881013525 0.0092996052989 
7.1379990821e-06 5.6840922481 13.228162369 29.652836289 21.398348967 23.067269352 0.01654785557 8.2546276688 14.995686028 
9.6427523273 0.52653702558 1.9039809605 1.6973182223e-06 11.377689705 9.869428495 0.071971500645 13.896384231 9.786801087 