# vtk DataFile Version 4.2
vtk output
ASCII
DATASET UNSTRUCTURED_GRID
POINTS 4342 double
-0.6 -0.6 0 0.6 -0.6 0 0.6 0.6 0 
-0.6 0.6 0 0 0 0 -0.58 -0.6 0 
-0.56 -0.6 0 -0.54 -0.6 0 -0.52 -0.6 0 
-0.5 -0.6 0 -0.48 -0.6 0 -0.46 -0.6 0 
-0.44 -0.6 0 -0.42 -0.6 0 -0.4 -0.6 0 
-0.38 -0.6 0 -0.36 -0.6 0 -0.34 -0.6 0 
-0.32 -0.6 0 -0.3 -0.6 0 -0.28 -0.6 0 
-0.26 -0.6 0 -0.24 -0.6 0 -0.22 -0.6 0 
-0.2 -0.6 0 -0.18 -0.6 0 -0.16 -0.6 0 
-0.14 -0.6 0 -0.12 -0.6 0 -0.1 -0.6 0 
-0.08 -0.6 0 -0.06 -0.6 0 -0.04 -0.6 0 
-0.02 -0.6 0 -8.881784197e-16 -0.6 0 0.02 -0.6 0 
0.04 -0.6 0 0.06 -0.6 0 0.08 -0.6 0 
0.1 -0.6 0 0.12 -0.6 0 0.14 -0.6 0 
0.16 -0.6 0 0.18 -0.6 0 0.2 -0.6 0 
0.22 -0.6 0 0.24 -0.6 0 0.26 -0.6 0 
0.28 -0.6 0 0.3 -0.6 0 0.32 -0.6 0 
0.34 -0.6 0 0.36 -0.6 0 0.38 -0.6 0 
0.4 -0.6 0 0.42 -0.6 0 0.44 -0.6 0 
0.46 -0.6 0 0.48 -0.6 0 0.5 -0.6 0 
0.52 -0.6 0 0.54 -0.6 0 0.56 -0.6 0 
0.58 -0.6 0 0.6 -0.58 0 0.6 -0.56 0 
0.6 -0.54 0 0.6 -0.52 0 0.6 -0.5 0 
0.6 -0.48 0 0.6 -0.46 0 0.6 -0.44 0 
0.6 -0.42 0 0.6 -0.4 0 0.6 -0.38 0 
0.6 -0.36 0 0.6 -0.34 0 0.6 -0.32 0 
0.6 -0.3 0 0.6 -0.28 0 0.6 -0.26 0 
0.6 -0.24 0 0.6 -0.22 0 0.6 -0.2 0 
0.6 -0.18 0 0.6 -0.16 0 0.6 -0.14 0 
0.6 -0.12 0 0.6 -0.1 0 0.6 -0.08 0 
0.6 -0.06 0 0.6 -0.04 0 0.6 -0.02 0 
0.6 -8.881784197e-16 0 0.6 0.02 0 0.6 0.04 0 
0.6 0.06 0 0.6 0.08 0 0.6 0.1 0 
0.6 0.12 0 0.6 0.14 0 0.6 0.16 0 
0.6 0.18 0 0.6 0.2 0 0.6 0.22 0 
0.6 0.24 0 0.6 0.26 0 0.6 0.28 0 
0.6 0.3 0 0.6 0.32 0 0.6 0.34 0 
0.6 0.36 0 0.6 0.38 0 0.6 0.4 0 
0.6 0.42 0 0.6 0.44 0 0.6 0.46 0 
0.6 0.48 0 0.6 0.5 0 0.6 0.52 0 
0.6 0.54 0 0.6 0.56 0 0.6 0.58 0 
0.58 0.6 0 0.56 0.6 0 0.54 0.6 0 
0.52 0.6 0 0.5 0.6 0 0.48 0.6 0 
0.46 0.6 0 0.44 0.6 0 0.42 0.6 0 
0.4 0.6 0 0.38 0.6 0 0.36 0.6 0 
0.34 0.6 0 0.32 0.6 0 0.3 0.6 0 
0.28 0.6 0 0.26 0.6 0 0.24 0.6 0 
0.22 0.6 0 0.2 0.6 0 0.18 0.6 0 
0.16 0.6 0 0.14 0.6 0 0.12 0.6 0 
0.1 0.6 0 0.08 0.6 0 0.06 0.6 0 
0.04 0.6 0 0.02 0.6 0 8.881784197e-16 0.6 0 
-0.02 0.6 0 -0.04 0.6 0 -0.06 0.6 0 
-0.08 0.6 0 -0.1 0.6 0 -0.12 0.6 0 
-0.14 0.6 0 -0.16 0.6 0 -0.18 0.6 0 
-0.2 0.6 0 -0.22 0.6 0 -0.24 0.6 0 
-0.26 0.6 0 -0.28 0.6 0 -0.3 0.6 0 
-0.32 0.6 0 -0.34 0.6 0 -0.36 0.6 0 
-0.38 0.6 0 -0.4 0.6 0 -0.42 0.6 0 
-0.44 0.6 0 -0.46 0.6 0 -0.48 0.6 0 
-0.5 0.6 0 -0.52 0.6 0 -0.54 0.6 0 
-0.56 0.6 0 -0.58 0.6 0 -0.6 0.58 0 
-0.6 0.56 0 -0.6 0.54 0 -0.6 0.52 0 
-0.6 0.5 0 -0.6 0.48 0 -0.6 0.46 0 
-0.6 0.44 0 -0.6 0.42 0 -0.6 0.4 0 
-0.6 0.38 0 -0.6 0.36 0 -0.6 0.34 0 
-0.6 0.32 0 -0.6 0.3 0 -0.6 0.28 0 
-0.6 0.26 0 -0.6 0.24 0 -0.6 0.22 0 
-0.6 0.2 0 -0.6 0.18 0 -0.6 0.16 0 
-0.6 0.14 0 -0.6 0.12 0 -0.6 0.1 0 
-0.6 0.08 0 -0.6 0.06 0 -0.6 0.04 0 
-0.6 0.02 0 -0.6 8.881784197e-16 0 -0.6 -0.02 0 
-0.6 -0.04 0 -0.6 -0.06 0 -0.6 -0.08 0 
-0.6 -0.1 0 -0.6 -0.12 0 -0.6 -0.14 0 
-0.6 -0.16 0 -0.6 -0.18 0 -0.6 -0.2 0 
-0.6 -0.22 0 -0.6 -0.24 0 -0.6 -0.26 0 
-0.6 -0.28 0 -0.6 -0.3 0 -0.6 -0.32 0 
-0.6 -0.34 0 -0.6 -0.36 0 -0.6 -0.38 0 
-0.6 -0.4 0 -0.6 -0.42 0 -0.6 -0.44 0 
-0.6 -0.46 0 -0.6 -0.48 0 -0.6 -0.5 0 
-0.6 -0.52 0 -0.6 -0.54 0 -0.6 -0.56 0 
-0.6 -0.58 0 0.25 -0.58267949192 0 -0.25 -0.58267949192 0 
-0.24969338163 0.58271630631 0 0.58313820224 0.25089999788 0 -0.58073798855 0.23055415423 0 
0.23 0.58267949192 0 0.5822727489 -0.23023532651 0 -0.58232885758 -0.22986293355 0 
-0.13 -0.58267949192 0 0.58091085312 0.12866705289 0 -0.13050081 0.58443309409 0 
0.13 -0.58267949192 0 0.11 0.58267949192 0 0.58128887437 -0.11185352307 0 
-0.58641004823 0.11046978504 0 -0.58097603768 -0.11235367818 0 -0.01 0.5841811861 0 
0.01 -0.58267949192 0 0.58217507245 0.011050809949 0 -0.58206506685 -0.010494327869 0 
0.58255589861 -0.33012459525 0 -0.58098267687 0.33246863147 0 0.33 0.58267949192 0 
-0.58090018381 -0.32734039494 0 0.35 -0.58267949192 0 0.58210978525 0.34851718814 0 
-0.34984356206 0.58269328777 0 -0.35 -0.58267949192 0 -0.58404031657 -0.41125547479 0 
0.58404031657 -0.41125547479 0 0.41 0.58267949192 0 -0.58127371569 0.40748932397 0 
0.43 -0.58267949192 0 0.58287041801 0.42966930632 0 -0.43030661837 0.58271630631 0 
-0.43 -0.58267949192 0 0.49 0.58267949192 0 0.58119455181 -0.49272606834 0 
-0.58196591894 0.48785347999 0 -0.58132747275 -0.49216380446 0 0.58099079541 0.19297246443 0 
-0.18926154554 0.58413656679 0 0.05 0.58267949192 0 0.19 -0.58267949192 0 
-0.07 -0.58267949192 0 0.58212565717 -0.051217328366 0 -0.07 0.58267949192 0 
0.58245912871 0.070013739955 0 0.07 -0.58267949192 0 0.58168449499 -0.17128271923 0 
-0.58574378526 0.05125913651 0 0.17050081 0.58443309409 0 -0.58168449499 -0.17128271923 0 
-0.58573295936 0.16883725031 0 -0.19 -0.58267949192 0 0.49 -0.58267949192 0 
-0.49050081 0.58443309409 0 0.58415322569 0.48921568047 0 -0.49 -0.58267949192 0 
0.53 -0.58267949192 0 0.58203286059 0.53119351335 0 -0.53 0.58267949192 0 
-0.58222913959 -0.53018403998 0 0.58202539473 0.28969699417 0 -0.29 0.58267949192 0 
-0.58451963751 -0.45057023735 0 -0.58267949192 -0.07 0 -0.29 -0.58267949192 0 
-0.03 -0.58267949192 0 0.39 -0.58267949192 0 0.58307204747 0.39068583015 0 
-0.39 0.58373814012 0 0.29 -0.58267949192 0 0.58208722445 -0.45065236781 0 
0.45042926572 0.58129593389 0 -0.58211115223 0.44955595746 0 -0.58432719917 -0.36932980655 0 
-0.58406793967 -0.26883049013 0 0.5820526686 -0.36901719046 0 0.37 0.58267949192 0 
-0.5823078615 0.36998422007 0 -0.39 -0.58267949192 0 -0.58211498987 0.271305057 0 
-0.53 -0.58267949192 0 0.58222913959 -0.53018403998 0 0.53 0.58373814012 0 
-0.58219774606 0.53090792334 0 0.58030324732 -0.28813008885 0 0.29050081 0.58443309409 0 
-0.58188605505 -0.56816348762 0 0.56922649731 -0.58312607391 0 0.58067979276 0.57009350437 0 
-0.57009384201 0.58146184644 0 0.54987108288 -0.58275392226 0 0.53997851381 -0.5653713889 0 
0.51999641897 -0.56536105136 0 0.52999582213 -0.54804088787 0 0.50999870685 -0.54803922237 0 
0.51999908816 -0.53071849415 0 0.4999996325 -0.53071817987 0 0.50999978678 -0.51339758273 0 
0.48999990321 -0.5133975155 0 0.49999994833 -0.49607698138 0 0.47999997526 -0.49607696583 0 
0.48999998726 -0.47875645082 0 0.46999999375 -0.47875644708 0 0.47999999684 -0.46143593722 0 
0.45999999843 -0.4614359363 0 0.46999999921 -0.44411542777 0 0.44999999961 -0.44411542755 0 
0.4599999998 -0.42679491936 0 0.4399999999 -0.4267949193 0 0.44999999995 -0.4094744112 0 
0.42999999998 -0.40947441118 0 0.43999999999 -0.3921539031 0 0.41999999999 -0.3921539031 0 
0.43 -0.37483339502 0 0.41 -0.37483339502 0 0.42 -0.35751288694 0 
0.4 -0.35751288694 0 0.41 -0.34019237886 0 0.39 -0.34019237886 0 
0.4 -0.32287187079 0 0.38 -0.32287187079 0 0.39 -0.30555136271 0 
0.37 -0.30555136271 0 0.38 -0.28823085464 0 0.36 -0.28823085464 0 
0.37 -0.27091034656 0 0.35 -0.27091034656 0 0.36 -0.25358983849 0 
0.34 -0.25358983849 0 0.35 -0.23626933041 0 0.33 -0.27091034656 0 
0.32 -0.25358983849 0 0.31 -0.27091034656 0 0.3 -0.25358983849 0 
0.29 -0.27091034656 0 0.28 -0.25358983849 0 0.27 -0.27091034656 0 
0.26 -0.25358983849 0 0.25 -0.27091034656 0 0.27 -0.23626933041 0 
0.24 -0.25358983849 0 0.23 -0.27091034656 0 0.22 -0.25358983849 0 
0.21 -0.27091034656 0 0.2 -0.25358983849 0 0.19 -0.27091034656 0 
0.18 -0.25358983849 0 0.17 -0.27091034656 0 0.19 -0.23626933041 0 
0.16 -0.25358983849 0 0.15 -0.27091034656 0 0.14 -0.25358983849 0 
0.13 -0.27091034656 0 0.12 -0.25358983849 0 0.11 -0.27091034656 0 
0.1 -0.25358983849 0 0.09 -0.27091034656 0 0.08 -0.25358983849 0 
0.07 -0.27091034656 0 0.06 -0.25358983849 0 0.05 -0.27091034656 0 
0.04 -0.25358983849 0 0.03 -0.27091034656 0 0.02 -0.25358983849 0 
0.01 -0.27091034656 0 -1.7474921972e-14 -0.25358983849 0 -0.01 -0.27091034656 0 
-0.02 -0.25358983849 0 -0.03 -0.27091034656 0 -0.04 -0.25358983849 0 
-0.05 -0.27091034656 0 -0.06 -0.25358983849 0 -0.07 -0.27091034656 0 
-0.08 -0.25358983849 0 -0.09 -0.27091034656 0 -0.1 -0.25358983849 0 
-0.11 -0.27091034656 0 -0.12 -0.25358983849 0 -0.13 -0.27091034656 0 
-0.14 -0.25358983849 0 -0.15 -0.27091034656 0 -0.16 -0.25358983849 0 
-0.17 -0.27091034656 0 -0.18 -0.25358983849 0 -0.19 -0.27091034656 0 
-0.2 -0.25358983849 0 -0.21 -0.27091034656 0 -0.22 -0.25358983849 0 
-0.21 -0.23626933041 0 -0.23 -0.23626933041 0 -0.22 -0.21894882233 0 
-0.23 -0.27091034656 0 -0.24 -0.21894882233 0 -0.23 -0.20162831426 0 
-0.25 -0.20162831426 0 -0.24 -0.18430780618 0 -0.26 -0.18430780618 0 
-0.25 -0.16698729811 0 -0.27 -0.16698729811 0 -0.26 -0.14966679003 0 
-0.27 -0.20162831426 0 -0.28 -0.14966679003 0 -0.27 -0.13234628196 0 
-0.29 -0.13234628196 0 -0.28 -0.11502577388 0 -0.3 -0.11502577388 0 
-0.29 -0.097705265805 0 0.22 -0.28823085464 0 0.1 -0.28823085464 0 
-0.1 -0.28823085464 0 -0.22 -0.28823085464 0 -0.24 -0.28823085464 0 
0.02 -0.28823085464 0 -0.31 -0.13234628196 0 -0.31 -0.097705265805 0 
-0.3 -0.080384757729 0 -0.28 -0.080384757729 0 -0.29 -0.063064249654 0 
-0.31 -0.063064249654 0 -0.3 -0.045743741578 0 -0.28 -0.045743741578 0 
-0.29 -0.028423233502 0 -0.27 -0.028423233502 0 -0.28 -0.011102725427 0 
-0.3 -0.011102725427 0 -0.29 0.0062177826491 0 -0.27 0.0062177826491 0 
-0.28 0.023538290725 0 -0.26 0.023538290725 0 -0.27 0.0408587988 0 
-0.25 0.0408587988 0 -0.26 0.058179306876 0 -0.24 0.058179306876 0 
-0.25 0.075499814952 0 -0.23 0.075499814952 0 -0.24 0.092820323028 0 
-0.22 0.092820323028 0 -0.23 0.1101408311 0 -0.21 0.1101408311 0 
-0.22 0.12746133918 0 -0.2 0.12746133918 0 -0.21 0.14478184725 0 
-0.19 0.14478184725 0 -0.2 0.16210235533 0 -0.18 0.16210235533 0 
-0.19 0.17942286341 0 -0.17 0.17942286341 0 -0.21 0.17942286341 0 
-0.2 0.19674337148 0 -0.22 0.19674337148 0 -0.21 0.21406387956 0 
-0.23 0.21406387956 0 -0.22 0.23138438763 0 -0.24 0.23138438763 0 
-0.23 0.24870489571 0 -0.21 0.24870489571 0 -0.25 0.24870489571 0 
-0.27 0.075499814952 0 -0.22 0.26602540378 0 -0.2 0.26602540378 0 
-0.21 0.28334591186 0 -0.19 0.28334591186 0 -0.31 0.0062177826491 0 
-0.23 -0.16698729811 0 0.11 -0.23626933041 0 -0.2 0.30066641994 0 
-0.18 0.30066641994 0 -0.23 -0.30555136271 0 -0.25 -0.30555136271 0 
0.39 -0.37483339502 0 -0.09 -0.23626933041 0 -0.19 0.31798692801 0 
[...]
CELL_DATA 8442
FIELD FieldData 1
flux 1 8442 double
7.2627426448e-15 3.0282609968e-09 3.9633760095e-09 9.7305256973e-09 3.9461643729e-08 1.111503532e-14 3.4554341898e-08 1.8631120087e-08 3.62239287e-08 
1.6414384684e-08 1.0439263424e-09 1.176596915e-10 5.4666769155e-09 1.1597700632e-08 1.3313331923e-17 3.9878152238e-09 1.4279123948e-11 9.8636568233e-09 
1.8567372225e-10 1.5565609354e-08 7.7253332899e-09 7.6280742731e-18 1.1741091668e-14 4.0397062434e-13 1.9308181781e-08 3.512352432e-14 1.7683565813e-13 
7.5050657461e-10 2.1417591075e-10 1.4611878931e-08 5.2620856177e-10 1.8079055769e-11 4.4460160756e-08 2.9182758583e-08 1.0096869885e-08 2.3284628814e-08 
4.8887908696e-08 5.3977894769e-09 9.0310372484e-09 1.2417138381e-08 1.4822349587e-09 1.8341651238e-17 1.3402009891e-10 3.8548059015e-08 2.8882075624e-09 
2.7500789588e-07 1.7554365765e-07 2.4606821716e-16 1.0815310346e-16 2.7550723919e-10 7.3897767899e-09 8.0593431689e-11 3.192934885e-15 1.0189518054e-14 
4.1798807595e-10 5.0256372317e-09 1.3174325259e-10 3.0218868344e-08 1.8024509509e-08 1.1585081296e-08 2.1965970995e-08 6.8169696241e-228 5.2327941525e-08 
1.1246726616e-118 3.791151548e-12 1.3286315411e-09 4.1177196194e-12 1.8144490976e-18 3.3965297423e-139 3.5607013702e-08 4.953505637e-08 2.2094350416e-13 
4.0903652495e-09 1.1838698986e-120 2.2885093783e-09 1.429163809e-13 5.1492816621e-08 2.5456075234e-08 3.6228502199e-08 4.5684425973e-08 6.1905424154e-08 
3.3527712985e-08 5.5876844822e-15 1.9479290978e-06 1.0240390493e-06 3.5079469977e-07 9.2019022126e-07 5.9278902855e-17 6.9994226285e-17 2.1222505548e-125 
2.1222505548e-125 1.1788704981e-08 4.4049128301e-08 9.6845830007e-11 6.0613987018e-11 4.3541832075e-08 4.5229284307e-09 5.2136790241e-09 3.1569807512e-09 
1.1447468543e-10 5.0500685657e-20 1.0714276401e-09 3.292924587e-08 5.3723371336e-08 1.6780000331e-12 2.9227404916e-08 1.3127640964e-10 2.3491417128e-08 
4.5590643936e-16 9.6009494895e-16 3.4768741757e-18 6.7828378438e-11 3.0807265259e-14 3.4092966782e-15 8.9501415425e-13 3.8339320661e-12 3.1966918848e-08 
2.5992971319e-08 2.9234973734e-08 4.7384285456e-08 5.3617393774e-08 7.7661104584e-10 2.1339584888e-08 2.8786191829e-08 3.4470045048e-08 4.0430350304e-08 
2.8099729192e-09 4.3761196127e-09 4.1147834574e-08 6.4398488109e-08 1.0433632794e-08 1.519173463e-08 4.6169599352e-18 1.1711570431e-09 1.6559166799e-08 
3.589589983e-10 7.8782247374e-14 3.0099224411e-11 1.7984091998e-11 4.122636108e-09 7.3370291939e-09 100.25081663 100.20415168 1.9664418812e-08 
2.2952207222e-08 1.4735297667e-08 9.7780258215e-18 8.091488029e-10 6.0634120283e-08 8.6637123197e-09 5.7513404701e-08 1.4147349965e-10 7.3838531626e-10 
7.0527517953e-15 1.157813857e-15 4.7730005241e-15 2.4019023943e-15 2.1601585623e-08 1.1180639221e-08 2.5285716706e-10 4.9675719705e-10 3.3337834213e-08 
1.2406478111e-14 6.6842809799e-15 7.3972687434e-09 9.6908335927e-12 3.8234270866e-13 1.0392558355e-09 6.5366576856e-08 2.122252327e-08 8.6811886037e-14 
1.0457939615e-08 3.4716582356e-08 100.60756139 100.5975517 6.7169060238e-14 100.74542049 100.67837156 2.4474553527e-08 1.3783028431e-13 
1.6815239655e-10 3.7771406113e-09 4.0960104142e-09 1.2463134672e-19 9.5501478423e-09 3.8347541787e-08 3.1596541616e-20 4.4379284043e-10 1.5971996891e-11 
7.1267288142e-13 1.3056949054e-17 1.6178754786e-17 1.6799286078e-10 1.3060028602e-12 1.1514505927e-11 8.4992170734e-09 3.068872404e-07 3.886933448e-07 
4.5684128472e-11 1.4859694987e-07 1.2394255097e-06 5.6107618486e-07 5.7758025098e-06 1.1340369529e-05 1.5207448339e-06 5.1977486469e-06 2.1268724543e-07 
6.3415778349e-07 7.8165649389e-07 1.3490594885e-07 1.6316734286e-07 8.3128988499e-07 1.0398920265e-07 2.0866205654e-07 6.6810879732e-07 1.067605949e-07 
1.1393488792e-06 7.6052849886e-07 4.0111688701e-10 4.8397818712e-06 1.1002161408e-13 3.0052716631e-12 2.6963699008e-12 1.300138843e-10 4.2689160473e-12 
3.3746338728e-06 1.7977242308e-07 0.37650419784 0.30618089147 0.32547721925 0.40115472085 0.32838924302 0.00015706374514 0.31247319878 
2.0224827059e-07 1.1651391962e-05 0.0070527629553 0.055036614759 0.078580711777 0.22858548986 0.34009560017 0.26034841118 0.35122167462 
0.12622489815 0.33168913004 0.2357361254 0.0015133285532 0.22811235089 5.4713566968e-07 0.25607090114 4.4146211691e-05 0.10162343386 
0.00022230980989 4.0809476258e-07 8.8564012864e-05 2.773274636e-07 0.0029255600678 1.0323877963e-06 2.5292230732e-06 7.4958806135e-08 0.00053143239009 
7.2562348514e-11 0.23268641529 0.26370140279 0.56421028088 3.7898977286e-05 1.3461682015e-05 0.2387745087 3.2166521365e-06 0.22935815309 
0.0015992356975 7.5479100418e-05 0.0024702801948 0.27416567327 0.032727130604 0.11468158686 0.26569871803 4.3682890913e-06 3.2751955925e-15 
6.5041868382e-16 0.1254656315 0.00017315495747 0.00025984955962 0.0087484775846 0.23450619833 0.15236703435 4.0672487988e-08 0.033291044004 
2.3438786951 0.0023384869401 0.00024769122497 0.17351366334 6.0481499781 0.00075019052691 6.5113469266 0.00019363470518 0.26783018652 
0.31462416733 -0.010238392365 0.23534172021 2.4476613077e-14 0.059577111857 0.16267599722 0.29268278448 6.3111722442 0.07848536899 
2.8949687379 0.0019048475905 0.00023736646682 1.818313002e-07 4.0602279447 0.017654312899 0.00055733345026 1.4830321333e-06 -0.20906900198 
0.00057776981863 0.020950118182 0.081943604523 0.036843168988 0.0010685838139 0.0072150302031 1.2065404604e-05 0.32059540083 6.0075755398 
0.0050966931915 0.058471055903 0.15568872229 0.28169481004 -0.16379088477 1.6271312502e-06 -0.17574996348 0.26967193532 4.6612776107e-06 
0.0056092296095 0.050336493671 0.0010214570527 -0.1837081366 0.022088548978 -0.15992043486 0.51304537256 0.0001117133746 -0.13844563858 
3.9565692601e-05 0.18861783581 0.27241710704 -0.20142498338 0.064098795452 0.23970722062 0.26024901257 0.10702782304 7.1314286035e-16 
-0.17921542475 0.032038734959 6.9749547348e-08 2.2389503961e-06 0.087351796883 0.12405346697 0.042934722421 0.024848408489 5.6993114967e-06 
0.012785973981 0.0098736888724 0.053836601873 7.4337919977e-06 0.25837665065 0.48781611726 0.43232136584 0.31780230741 0.0013168226238 
0.33219000323 1.5232491047e-05 4.1500980659e-06 2.9319111619 0.27060570386 0.60260530277 0.31817497124 0.77823963067 0.11388608816 
6.5853019443e-06 1.982852302 4.7149405583e-07 1.3212058818e-08 0.46758978061 0.71612123323 2.5964314401e-07 0.18159902338 0.48661801611 
0.10824674433 0.0014040098994 2.1452210085e-07 0.13153352298 0.1905772483 0.077033567019 0.005983102955 0.045587568431 1.0755672229e-09 
0.0017779440897 0.0075049105777 0.0034479243022 0.95148587222 0.22748483043 3.5327508322 2.3173323019 4.211096962e-07 0.062521014241 
0.70722586042 1.9031099065e-07 0.03973677308 5.1317214717e-05 1.1745980811 0.10098025751 -0.25172130827 4.9673973711e-05 0.15316880675 
0.043945882822 -0.25158803829 0.3790994244 1.5103927021e-05 0.054096110834 0.31248901667 -0.17654339426 0.50793204079 0.080913209906 
8.5387118516e-07 0.87492455746 0.4042234598 0.14610732194 0.25906712709 5.1424268703 0.32835120946 0.036863251698 0.0031119013642 
0.014971976994 3.1233001377e-07 0.05328844812 0.0043883576951 0.11288969918 0.055519289269 5.894840533e-05 1.0845504136e-06 4.6492180893e-07 
1.9378469859e-06 -0.1318274187 -0.14588427547 -0.14951808191 0.47382027817 9.3767050377e-09 5.7923122617 1.8426167045 0.092380890719 
1.3346650919e-05 1.1162741377e-06 0.41642560741 0.10306102335 1.2494244441e-16 0.043023528367 0.14696690104 0.1115162471 0.00014287064107 
2.3367033266e-06 0.80064763119 0.11452287552 0.11229208008 -0.10475656625 -0.093880974542 0.93945295257 5.1089011908e-05 0.28137655784 
-0.055822462041 0.24523062242 0.039423790499 0.00010719889792 0.33492485242 0.023527031871 0.086449104728 0.46505300361 -0.18700100199 
0.22526587723 0.1577035615 -0.174068995 5.1335792298e-06 0.0006657323695 0.023367099641 0.17460772988 -0.19088201315 0.00045688283359 
-0.17647338031 0.082433864565 0.00036323040576 0.1226807499 -0.036455814083 0.68373909075 6.3363177598e-09 0.088825674117 5.647436592e-07 
0.25850818004 5.8394736364e-10 0.3905348681 0.24855242405 -0.20676331244 0.00055746775585 0.31115874597 0.17228612462 0.34870437962 
7.8434043838e-15 0.37432344665 -0.17605970241 6.1341338095e-06 -0.10411016643 -0.079678668016 0.17471745176 0.0013650776146 0.0071727692535 
8.9287601892e-06 0.033651350839 0.94428573669 0.21313119133 0.18012372058 0.19459944599 0.37393758707 1.7640298552e-05 0.033111874346 
0.0013740105211 0.89190628002 0.007625191395 0.10926698254 -0.04362529652 0.50594924794 0.060035988964 2.8071477611e-05 0.17622562001 
2.2608246781e-05 0.54064089761 0.00094620068279 0.10116426493 0.18331263331 5.3737948694 0.039550069093 0.31510085922 0.3436861445 
0.072609874405 1.2547941913 0.2169660862 -0.10502465653 0.060711965759 0.021157465027 0.3308457588 1.5156103853e-09 0.053182122239 
1.6399737698e-05 3.8325441544 0.013945908557 0.22321328709 0.30442529286 0.016115419274 7.9311061174e-05 6.791743501e-05 0.21062221781 
0.10803704258 0.65354003997 1.559886872e-05 0.10105977522 0.089388862991 1.0002667567e-07 0.75141572567 2.0339113535e-06 0.19571469303 
6.2705891631e-09 0.065506207328 0.59468734497 1.5174062899 0.26383601999 0.66968643903 -0.17710774895 3.8494368097e-09 0.32263747195 
5.0011199217e-06 0.32787500558 -0.19018800094 2.9870572116e-08 0.0812221969 0.024038553679 2.291660115e-17 0.40029036538 0.039223721143 
0.059087839511 0.46670792761 0.10517307281 0.46239015126 4.7463147756 0.33400538223 4.5345884098e-07 -0.046626173461 0.32943565226 
0.017656552556 0.40930452561 0.45261966071 -0.095545107355 0.012717075854 0.7665866868 1.9113165474e-09 0.00029297656305 1.1301900688e-07 
0.078874656206 0.2873584182 0.02146750122 7.6185202155e-13 1.5863057184e-09 1.2235335903 1.6745854867e-06 1.2181487007 4.8338505222 
0.072202653046 8.916240835e-07 -0.06656599811 0.00020754445385 0.0085503470478 0.23767211897 0.13069433375 0.076952267619 0.071554017854 
0.12684720262 6.2361231062 0.25341057104 0.22563162405 2.057436609e-08 1.4110726994e-08 0.77048518824 1.9940872311 0.31229067334 
0.22678785616 1.3087452554 1.2322925665e-05 0.40552955206 0.00012733333517 0.73945724702 2.3675181414e-10 -0.14218911869 1.5534660993e-07 
-0.15425886495 -0.18676921579 0.079906644108 0.2510817429 3.7342678672e-05 0.014039681271 0.31507816624 -0.14076579201 0.0077629289887 
0.12584130256 6.3997250551e-07 0.0043109658362 0.4776221157 -0.22178686107 0.089522862817 0.037685040296 -0.057926277387 9.4988182444e-06 
2.2224468763e-05 0.47609958387 3.5061025257e-05 -0.10748711075 5.045068422 0.35004993962 0.33827305358 9.2823112056e-08 0.21474965244 
0.01470453341 0.33184839108 5.5807654592 0.011870011151 2.51350029 0.53302807934 1.6483365362e-05 0.00016108854725 0.014659443247 
0.0033189952071 0.12043119136 0.031259119609 0.19390029995 0.36825920782 0.19271182009 1.6248995766e-11 0.06041709621 4.6306786111e-05 
0.01859554068 0.29498625106 0.0013114246848 2.4954350648e-06 4.0688055855e-07 0.17131672476 2.0231293288e-06 0.05452856711 0.52442518684 
0.00054123601486 -0.20038601112 1.8074365207e-07 0.00088925892893 -0.24821863508 0.25448309281 0.3450366233 1.7609088819e-05 5.8775294468e-06 
0.17895095557 7.165255413e-06 0.67455992013 0.39345484718 0.55590844261 2.9000908976e-07 1.6392840511 0.32436725588 0.17874574806 
0.17813410541 0.24752190214 1.4447935292e-05 0.16844037582 0.25997324611 0.45152831217 0.25663400291 1.3594543761e-08 0.32393895847 
0.14101839137 0.79950430244 2.0759159851e-08 0.1108634612 1.4031759181e-06 1.3891265422e-06 0.11487670338 -0.20812127999 -0.2087899969 
0.53280928557 1.6478695892 0.00055828096983 1.8933143487e-06 1.0624089134e-15 9.1143925975e-221 0.39401399306 8.4442219646e-08 0.00040730548439 
0.69170828342 0.48989518093 0.67228298711 0.4514523889 0.23379109422 0.47406077629 0.043688438161 5.3061154502 -0.20456974186 
0.00049350525251 0.028882375213 0.24343632839 0.15470597002 2.937087157 0.2709299099 -0.19031437188 6.8092359889e-05 0.50274847488 
0.54824541644 3.1685829971e-07 0.43286543824 6.3139237445e-17 0.040860775206 0.00075430006807 0.00020438850479 0.56485756368 1.5839423155e-07 
0.27249890102 0.013556933165 0.33400901489 0.0001338822704 -0.18280816328 0.44754939292 0.072516701541 0.0046219295958 0.038430350508 
0.2458687467 0.24392118859 -0.24001112444 0.00012371694897 0.0060398274569 0.007000030671 1.4538257119 4.4219325009e-05 0.0093780799324 
2.2965821926 0.064509155716 0.00012825947795 1.1875585326e-06 0.47600598877 -0.16536532083 1.696532913 0.34450890331 0.34640825381 
9.2028937792e-07 0.058347281601 1.953137778e-05 0.011348648584 0.33364587346 0.49528193389 0.10172398516 0.46341638996 0.00054566735128 
1.1444571393e-07 2.5593429401e-08 0.36131709771 0.044830260617 2.9975518819 2.1728581685e-08 0.0045187042381 0.0035479248032 0.45723185865 
0.53258492054 0.00071300036876 3.2050598056e-11 0.1489328695 0.0070296618846 0.47313261853 0.0048527007756 0.50141215259 1.5176787852e-06 
4.7948045432e-07 2.9007597383e-09 8.0728363204e-09 -0.24379006168 9.4843634642e-06 2.2768847645e-05 0.061276994434 0.51734245488 0.15087520696 
0.00019671582521 0.15473439688 1.7726814389 0.2723711774 -0.023444091773 3.6485106599e-11 0.31005781327 0.17160808378 4.5711810964e-10 
0.00030040789227 0.40375975444 0.097778528923 0.48070515142 0.33816963097 4.2010900426e-16 -0.18387194964 0.0013952735255 4.6727065679e-06 
0.38459863564 6.1754286604e-05 4.2518341294 4.9076265196 3.3436613687 7.1661950727e-05 8.5270913086e-06 0.00024172553914 3.257323776e-05 
0.0063190123745 0.00098740801802 0.038808622825 2.6749739916 0.00019196694442 1.4314163502 9.7224451532e-09 0.00025554445007 0.0002565714683 
2.2054457233 2.8469222613 9.0816476743e-10 0.010065283866 1.1273300675e-06 5.2168824727 0.041504898537 -0.084330261592 0.42630095243 
0.32956954593 0.3312249299 8.8349807624e-06 0.69626990177 3.4665248284 0.24765823858 0.25165504175 0.40573418592 0.0031035306053 
0.15753511408 4.354142778e-06 0.68098636929 2.4383941345e-05 -0.26398536803 0.12526049397 6.2133873604 0.10758734377 3.4956261228e-08 
0.00014169221686 0.10472238635 2.1350725197 -0.17907105601 5.9427606881e-07 5.9279850998e-08 -0.13963574413 6.6407420133e-08 0.44592811913 
1.8123137653e-06 0.0080520705574 1.4056193624e-15 -0.23921955882 7.469537192e-06 2.5772465612e-13 0.00061349952529 -0.34284771148 1.3189242421e-05 
0.3984784864 0.39148875679 0.54962641211 5.4641590425e-08 9.3691644827e-13 1.9179169428e-08 2.0959313922 1.9376853701e-09 0.25663416183 
-0.06384236977 0.23014276838 1.6210596507 0.56721235451 -0.1224067196 -0.0016370630134 0.33575546407 0.90783573818 0.00027061775879 
0.49070015686 0.48156290786 1.4428363669 5.7026548644e-07 9.1723937907e-05 -0.20936701935 1.4102680536e-08 0.26953833211 0.095718259145 
1.8033483795e-09 0.0033441279938 2.0390103072e-08 5.6780444853e-06 0.062154787906 0.19349457704 0.1841703464 0.69901656815 0.043220605155 
2.2858212012e-05 0.0001022370659 4.4512120515e-07 0.0028398976263 0.0040996828994 0.00024476013298 3.3687589493e-07 3.5788576862e-07 -0.12185198997 
0.039541776334 0.022968112728 8.2381122188e-07 0.0031359179016 8.080632843e-07 0.17007080431 5.6366542058e-09 0.44111250479 0.00578865833 
0.0016196570253 0.079058784292 0.14869968109 0.33006519874 2.4376417524e-05 1.508890955e-07 0.12627350506 0.0005771265358 0.4695244483 
0.23035997481 7.2857362481e-07 0.14585250509 0.33673460154 -0.16920365096 3.4640711048 -0.096793169038 0.42932754624 -0.16736176007 
0.27822167241 0.35978545311 0.070345465385 -0.29801420965 0.44538493028 4.4938059232e-05 -0.20233902743 1.0916979888e-05 2.0393537393e-06 
2.6338589402 7.0930091702e-09 2.3370715448 0.12219941333 0.00014767623478 0.0024174536729 0.12329012767 0.27416523877 2.3964945444e-07 
3.1376224615e-06 0.58833327358 1.4754039795 0.042915157085 0.00082940046103 0.00029591526999 0.071687774444 0.0028729735402 -0.16946576378 
5.6230020987e-10 3.6717171568 0.39207972603 -0.31056427448 4.6187014598e-06 6.6568493802e-09 1.0693631077 5.8815143627 4.0544585145 
0.0001090412922 0.00010566453251 1.6963645517 1.0643481651e-05 0.95637916842 0.32427355222 -0.35111482536 5.9019208507e-06 0.4689127857 
0.66401954805 2.3087708344 -0.17256640158 0.25749155755 2.8584826641e-07 -0.17538088566 -0.049860088353 0.22348142897 0.004959328068 
1.7493688778e-06 3.0301809154 0.28265750592 1.6880378338 -0.014461163343 1.3541685102e-10 0.52542745127 1.9545554597 0.17223219528 
0.0045750532215 0.51936205686 0.014539404777 -0.15466151887 0.00060738531134 0.00036855829282 2.7723447955e-06 0.34491043489 5.1199825569e-09 
2.941354392e-05 0.1576141742 5.2336512593e-07 0.00094055576855 0.012694937085 4.3508319907e-05 1.0232407021e-08 3.4641268957e-05 0.0014123898167 
5.9941449967e-07 7.2798979583e-08 3.616308558 6.8976662009e-05 0.43419598345 0.02130436669 3.9565372751 0.12180430016 0.1812342463 
0.31041408079 4.4818407638 0.0012394964025 1.092571255 -0.20349893763 3.0802495699e-08 0.0038339745812 0.05156594115 0.39766057972 
0.020987889171 5.9276752086e-206 2.1862474456e-206 1.9747569965e-05 0.028155478819 -0.11340981171 3.3022493413 0.20728386773 2.4292596985 
0.45116574198 0.085770656168 0.12580878278 0.66619641409 0.36256735744 1.085575879 -0.32880310018 -0.055846338544 1.1006782447 
-0.28714316474 0.0031742539205 0.0072438812775 4.2659229969e-05 1.1392380574 0.34314068271 0.00011697139965 5.7657865452 0.0090348944391 
0.27951705912 6.1437612708 0.0073211699723 -0.3413350296 0.41900530737 0.00010773471034 1.1086786541 0.59041667925 3.8369701706e-07 
3.0310533467 0.48051431601 2.6654692375e-06 0.31119223698 7.4874423151e-221 0.48406283914 0.0034365940512 0.00091340045697 0.4636517316 
0.69695384129 1.0987070469e-05 -0.34866203421 0.00072412181724 2.284184979 0.35341968775 5.0491964458e-05 0.13728233088 1.329233716e-05 
1.2528996052e-05 0.0097247092101 2.8515198177e-07 2.973235029e-08 -0.18365354201 0.33719945946 1.7953244735e-06 0.20825199506 1.4219542784 
3.8904016188 0.28359022732 5.5705468113 0.48346879348 4.606471776e-12 1.4779409707e-08 0.15380109608 2.9953553193e-08 0.043358029824 
0.2991709148 0.0034252793672 0.024413550261 2.5996624357 0.053116785759 0.32211909073 -0.21857628948 0.73608878509 0.00013634295627 
0.15506494162 0.15625552565 4.0811783617e-07 0.10401287445 0.075436836912 5.0439461196e-09 0.14728689104 1.625996058e-05 -0.11468385682 
0.32002780743 2.0177396407 4.377165209e-05 0.10593310802 5.5729495157e-05 0.023512380272 -0.186751698 2.0139532531e-14 0.042474343671 
3.4521646672 0.00034518498905 2.9325320475 0.00050188417731 -0.34714303007 -0.028789230657 -0.23169497538 0.03921999304 -0.29077959831 
0.052185700446 0.0023647473758 2.5871022138 0.00020141831853 0.097662253455 1.4654235176 0.004082339608 0.13377108994 4.0593507428 
1.9502219332 1.7183258426 0.17745004485 4.8817495659e-07 0.24425669789 0.00010229098278 -0.03008041026 0.01038056983 0.010559205417 
0.003616645308 0.50298135842 -0.13512552489 0.43876355652 0.047277904743 1.636944349e-06 2.0821031298e-09 5.1808077078 1.5480413032e-12 
0.18043772148 0.90516018351 0.010286546042 0.98816010654 1.7031289989 -0.064163586129 1.9664817117 0.53827079906 0.00028239921809 
9.7027731072e-08 1.6027307149e-06 1.479927216e-07 0.21485261889 0.0069198808646 5.0848755365 0.00064784645418 0.0076084834408 3.4859668473e-06 
2.1887917652e-07 0.14202084692 0.026520374605 0.0071514583026 0.86894530446 0.0082473895438 6.4278298424e-10 2.5543394564e-08 0.001976939245 
2.1091323472 0.32897050957 0.00054269586407 1.616541457e-14 0.58226471082 4.9509683393 0.033622055233 1.4900160396e-07 0.23472528864 
0.50983098176 0.0035855572962 4.7087008353 0.4351004895 -0.19435396794 -0.0516536291 5.6704704231e-08 3.423297626e-09 5.9135983304e-13 
0.080019608017 0.075406316312 0.024212663358 1.4874308552 1.7014557869e-05 -0.28142319338 0.1654716176 1.6728784035e-06 0.00025992223896 
0.0003036848295 0.013257483674 1.3889121693e-07 -0.22691437854 -0.12772078285 2.3792012757e-05 0.49983944878 9.8141699581e-06 0.45249590616 
1.8074294078e-05 0.27173675969 5.2957689365e-09 -0.05059481843 0.24162595303 1.1131165599e-08 0.17603600391 0.031728671027 0.0058307690885 