# vtk DataFile Version 4.2
vtk output
ASCII
DATASET UNSTRUCTURED_GRID
POINTS 4342 double
-0.6 -0.6 0 0.6 -0.6 0 0.6 0.6 0 
-0.6 0.6 0 0 0 0 -0.58 -0.6 0 
-0.56 -0.6 0 -0.54 -0.6 0 -0.52 -0.6 0 
-0.5 -0.6 0 -0.48 -0.6 0 -0.46 -0.6 0 
-0.44 -0.6 0 -0.42 -0.6 0 -0.4 -0.6 0 
-0.38 -0.6 0 -0.36 -0.6 0 -0.34 -0.6 0 
-0.32 -0.6 0 -0.3 -0.6 0 -0.28 -0.6 0 
-0.26 -0.6 0 -0.24 -0.6 0 -0.22 -0.6 0 
-0.2 -0.6 0 -0.18 -0.6 0 -0.16 -0.6 0 
-0.14 -0.6 0 -0.12 -0.6 0 -0.1 -0.6 0 
-0.08 -0.6 0 -0.06 -0.6 0 -0.04 -0.6 0 
-0.02 -0.6 0 -8.881784197e-16 -0.6 0 0.02 -0.6 0 
0.04 -0.6 0 0.06 -0.6 0 0.08 -0.6 0 
0.1 -0.6 0 0.12 -0.6 0 0.14 -0.6 0 
0.16 -0.6 0 0.18 -0.6 0 0.2 -0.6 0 
0.22 -0.6 0 0.24 -0.6 0 0.26 -0.6 0 
0.28 -0.6 0 0.3 -0.6 0 0.32 -0.6 0 
0.34 -0.6 0 0.36 -0.6 0 0.38 -0.6 0 
0.4 -0.6 0 0.42 -0.6 0 0.44 -0.6 0 
0.46 -0.6 0 0.48 -0.6 0 0.5 -0.6 0 
0.52 -0.6 0 0.54 -0.6 0 0.56 -0.6 0 
0.58 -0.6 0 0.6 -0.58 0 0.6 -0.56 0 
0.6 -0.54 0 0.6 -0.52 0 0.6 -0.5 0 
0.6 -0.48 0 0.6 -0.46 0 0.6 -0.44 0 
0.6 -0.42 0 0.6 -0.4 0 0.6 -0.38 0 
0.6 -0.36 0 0.6 -0.34 0 0.6 -0.32 0 
0.6 -0.3 0 0.6 -0.28 0 0.6 -0.26 0 
0.6 -0.24 0 0.6 -0.22 0 0.6 -0.2 0 
0.6 -0.18 0 0.6 -0.16 0 0.6 -0.14 0 
0.6 -0.12 0 0.6 -0.1 0 0.6 -0.08 0 
0.6 -0.06 0 0.6 -0.04 0 0.6 -0.02 0 
0.6 -8.881784197e-16 0 0.6 0.02 0 0.6 0.04 0 
0.6 0.06 0 0.6 0.08 0 0.6 0.1 0 
0.6 0.12 0 0.6 0.14 0 0.6 0.16 0 
0.6 0.18 0 0.6 0.2 0 0.6 0.22 0 
0.6 0.24 0 0.6 0.26 0 0.6 0.28 0 
0.6 0.3 0 0.6 0.32 0 0.6 0.34 0 
0.6 0.36 0 0.6 0.38 0 0.6 0.4 0 
0.6 0.42 0 0.6 0.44 0 0.6 0.46 0 
0.6 0.48 0 0.6 0.5 0 0.6 0.52 0 
0.6 0.54 0 0.6 0.56 0 0.6 0.58 0 
0.58 0.6 0 0.56 0.6 0 0.54 0.6 0 
0.52 0.6 0 0.5 0.6 0 0.48 0.6 0 
0.46 0.6 0 0.44 0.6 0 0.42 0.6 0 
0.4 0.6 0 0.38 0.6 0 0.36 0.6 0 
0.34 0.6 0 0.32 0.6 0 0.3 0.6 0 
0.28 0.6 0 0.26 0.6 0 0.24 0.6 0 
0.22 0.6 0 0.2 0.6 0 0.18 0.6 0 
0.16 0.6 0 0.14 0.6 0 0.12 0.6 0 
0.1 0.6 0 0.08 0.6 0 0.06 0.6 0 
0.04 0.6 0 0.02 0.6 0 8.881784197e-16 0.6 0 
-0.02 0.6 0 -0.04 0.6 0 -0.06 0.6 0 
-0.08 0.6 0 -0.1 0.6 0 -0.12 0.6 0 
-0.14 0.6 0 -0.16 0.6 0 -0.18 0.6 0 
-0.2 0.6 0 -0.22 0.6 0 -0.24 0.6 0 
-0.26 0.6 0 -0.28 0.6 0 -0.3 0.6 0 
-0.32 0.6 0 -0.34 0.6 0 -0.36 0.6 0 
-0.38 0.6 0 -0.4 0.6 0 -0.42 0.6 0 
-0.44 0.6 0 -0.46 0.6 0 -0.48 0.6 0 
-0.5 0.6 0 -0.52 0.6 0 -0.54 0.6 0 
-0.56 0.6 0 -0.58 0.6 0 -0.6 0.58 0 
-0.6 0.56 0 -0.6 0.54 0 -0.6 0.52 0 
-0.6 0.5 0 -0.6 0.48 0 -0.6 0.46 0 
-0.6 0.44 0 -0.6 0.42 0 -0.6 0.4 0 
-0.6 0.38 0 -0.6 0.36 0 -0.6 0.34 0 
-0.6 0.32 0 -0.6 0.3 0 -0.6 0.28 0 
-0.6 0.26 0 -0.6 0.24 0 -0.6 0.22 0 
-0.6 0.2 0 -0.6 0.18 0 -0.6 0.16 0 
-0.6 0.14 0 -0.6 0.12 0 -0.6 0.1 0 
-0.6 0.08 0 -0.6 0.06 0 -0.6 0.04 0 
-0.6 0.02 0 -0.6 8.881784197e-16 0 -0.6 -0.02 0 
-0.6 -0.04 0 -0.6 -0.06 0 -0.6 -0.08 0 
-0.6 -0.1 0 -0.6 -0.12 0 -0.6 -0.14 0 
-0.6 -0.16 0 -0.6 -0.18 0 -0.6 -0.2 0 
-0.6 -0.22 0 -0.6 -0.24 0 -0.6 -0.26 0 
-0.6 -0.28 0 -0.6 -0.3 0 -0.6 -0.32 0 
-0.6 -0.34 0 -0.6 -0.36 0 -0.6 -0.38 0 
-0.6 -0.4 0 -0.6 -0.42 0 -0.6 -0.44 0 
-0.6 -0.46 0 -0.6 -0.48 0 -0.6 -0.5 0 
-0.6 -0.52 0 -0.6 -0.54 0 -0.6 -0.56 0 
-0.6 -0.58 0 0.25 -0.58267949192 0 -0.25 -0.58267949192 0 
-0.24969338163 0.58271630631 0 0.58313820224 0.25089999788 0 -0.58073798855 0.23055415423 0 
0.23 0.58267949192 0 0.5822727489 -0.23023532651 0 -0.58232885758 -0.22986293355 0 
-0.13 -0.58267949192 0 0.58091085312 0.12866705289 0 -0.13050081 0.58443309409 0 
0.13 -0.58267949192 0 0.11 0.58267949192 0 0.58128887437 -0.11185352307 0 
-0.58641004823 0.11046978504 0 -0.58097603768 -0.11235367818 0 -0.01 0.5841811861 0 
0.01 -0.58267949192 0 0.58217507245 0.011050809949 0 -0.58206506685 -0.010494327869 0 
0.58255589861 -0.33012459525 0 -0.58098267687 0.33246863147 0 0.33 0.58267949192 0 
-0.58090018381 -0.32734039494 0 0.35 -0.58267949192 0 0.58210978525 0.34851718814 0 
-0.34984356206 0.58269328777 0 -0.35 -0.58267949192 0 -0.58404031657 -0.41125547479 0 
0.58404031657 -0.41125547479 0 0.41 0.58267949192 0 -0.58127371569 0.40748932397 0 
0.43 -0.58267949192 0 0.58287041801 0.42966930632 0 -0.43030661837 0.58271630631 0 
-0.43 -0.58267949192 0 0.49 0.58267949192 0 0.58119455181 -0.49272606834 0 
-0.58196591894 0.48785347999 0 -0.58132747275 -0.49216380446 0 0.58099079541 0.19297246443 0 
-0.18926154554 0.58413656679 0 0.05 0.58267949192 0 0.19 -0.58267949192 0 
-0.07 -0.58267949192 0 0.58212565717 -0.051217328366 0 -0.07 0.58267949192 0 
0.58245912871 0.070013739955 0 0.07 -0.58267949192 0 0.58168449499 -0.17128271923 0 
-0.58574378526 0.05125913651 0 0.17050081 0.58443309409 0 -0.58168449499 -0.17128271923 0 
-0.58573295936 0.16883725031 0 -0.19 -0.58267949192 0 0.49 -0.58267949192 0 
-0.49050081 0.58443309409 0 0.58415322569 0.48921568047 0 -0.49 -0.58267949192 0 
0.53 -0.58267949192 0 0.58203286059 0.53119351335 0 -0.53 0.58267949192 0 
-0.58222913959 -0.53018403998 0 0.58202539473 0.28969699417 0 -0.29 0.58267949192 0 
-0.58451963751 -0.45057023735 0 -0.58267949192 -0.07 0 -0.29 -0.58267949192 0 
-0.03 -0.58267949192 0 0.39 -0.58267949192 0 0.58307204747 0.39068583015 0 
-0.39 0.58373814012 0 0.29 -0.58267949192 0 0.58208722445 -0.45065236781 0 
0.45042926572 0.58129593389 0 -0.58211115223 0.44955595746 0 -0.58432719917 -0.36932980655 0 
-0.58406793967 -0.26883049013 0 0.5820526686 -0.36901719046 0 0.37 0.58267949192 0 
-0.5823078615 0.36998422007 0 -0.39 -0.58267949192 0 -0.58211498987 0.271305057 0 
-0.53 -0.58267949192 0 0.58222913959 -0.53018403998 0 0.53 0.58373814012 0 
-0.58219774606 0.53090792334 0 0.58030324732 -0.28813008885 0 0.29050081 0.58443309409 0 
-0.58188605505 -0.56816348762 0 0.56922649731 -0.58312607391 0 0.58067979276 0.57009350437 0 
-0.57009384201 0.58146184644 0 0.54987108288 -0.58275392226 0 0.53997851381 -0.5653713889 0 
0.51999641897 -0.56536105136 0 0.52999582213 -0.54804088787 0 0.50999870685 -0.54803922237 0 
0.51999908816 -0.53071849415 0 0.4999996325 -0.53071817987 0 0.50999978678 -0.51339758273 0 
0.48999990321 -0.5133975155 0 0.49999994833 -0.49607698138 0 0.47999997526 -0.49607696583 0 
0.48999998726 -0.47875645082 0 0.46999999375 -0.47875644708 0 0.47999999684 -0.46143593722 0 
0.45999999843 -0.4614359363 0 0.46999999921 -0.44411542777 0 0.44999999961 -0.44411542755 0 
0.4599999998 -0.42679491936 0 0.4399999999 -0.4267949193 0 0.44999999995 -0.4094744112 0 
0.42999999998 -0.40947441118 0 0.43999999999 -0.3921539031 0 0.41999999999 -0.3921539031 0 
0.43 -0.37483339502 0 0.41 -0.37483339502 0 0.42 -0.35751288694 0 
0.4 -0.35751288694 0 0.41 -0.34019237886 0 0.39 -0.34019237886 0 
0.4 -0.32287187079 0 0.38 -0.32287187079 0 0.39 -0.30555136271 0 
0.37 -0.30555136271 0 0.38 -0.28823085464 0 0.36 -0.28823085464 0 
0.37 -0.27091034656 0 0.35 -0.27091034656 0 0.36 -0.25358983849 0 
0.34 -0.25358983849 0 0.35 -0.23626933041 0 0.33 -0.27091034656 0 
0.32 -0.25358983849 0 0.31 -0.27091034656 0 0.3 -0.25358983849 0 
0.29 -0.27091034656 0 0.28 -0.25358983849 0 0.27 -0.27091034656 0 
0.26 -0.25358983849 0 0.25 -0.27091034656 0 0.27 -0.23626933041 0 
0.24 -0.25358983849 0 0.23 -0.27091034656 0 0.22 -0.25358983849 0 
0.21 -0.27091034656 0 0.2 -0.25358983849 0 0.19 -0.27091034656 0 
0.18 -0.25358983849 0 0.17 -0.27091034656 0 0.19 -0.23626933041 0 
0.16 -0.25358983849 0 0.15 -0.27091034656 0 0.14 -0.25358983849 0 
0.13 -0.27091034656 0 0.12 -0.25358983849 0 0.11 -0.27091034656 0 
0.1 -0.25358983849 0 0.09 -0.27091034656 0 0.08 -0.25358983849 0 
0.07 -0.27091034656 0 0.06 -0.25358983849 0 0.05 -0.27091034656 0 
0.04 -0.25358983849 0 0.03 -0.27091034656 0 0.02 -0.25358983849 0 
0.01 -0.27091034656 0 -1.7474921972e-14 -0.25358983849 0 -0.01 -0.27091034656 0 
-0.02 -0.25358983849 0 -0.03 -0.27091034656 0 -0.04 -0.25358983849 0 
-0.05 -0.27091034656 0 -0.06 -0.25358983849 0 -0.07 -0.27091034656 0 
-0.08 -0.25358983849 0 -0.09 -0.27091034656 0 -0.1 -0.25358983849 0 
-0.11 -0.27091034656 0 -0.12 -0.25358983849 0 -0.13 -0.27091034656 0 
-0.14 -0.25358983849 0 -0.15 -0.27091034656 0 -0.16 -0.25358983849 0 
-0.17 -0.27091034656 0 -0.18 -0.25358983849 0 -0.19 -0.27091034656 0 
-0.2 -0.25358983849 0 -0.21 -0.27091034656 0 -0.22 -0.25358983849 0 
-0.21 -0.23626933041 0 -0.23 -0.23626933041 0 -0.22 -0.21894882233 0 
-0.23 -0.27091034656 0 -0.24 -0.21894882233 0 -0.23 -0.20162831426 0 
-0.25 -0.20162831426 0 -0.24 -0.18430780618 0 -0.26 -0.18430780618 0 
-0.25 -0.16698729811 0 -0.27 -0.16698729811 0 -0.26 -0.14966679003 0 
-0.27 -0.20162831426 0 -0.28 -0.14966679003 0 -0.27 -0.13234628196 0 
-0.29 -0.13234628196 0 -0.28 -0.11502577388 0 -0.3 -0.11502577388 0 
-0.29 -0.097705265805 0 0.22 -0.28823085464 0 0.1 -0.28823085464 0 
-0.1 -0.28823085464 0 -0.22 -0.28823085464 0 -0.24 -0.28823085464 0 
0.02 -0.28823085464 0 -0.31 -0.13234628196 0 -0.31 -0.097705265805 0 
-0.3 -0.080384757729 0 -0.28 -0.080384757729 0 -0.29 -0.063064249654 0 
-0.31 -0.063064249654 0 -0.3 -0.045743741578 0 -0.28 -0.045743741578 0 
-0.29 -0.028423233502 0 -0.27 -0.028423233502 0 -0.28 -0.011102725427 0 
-0.3 -0.011102725427 0 -0.29 0.0062177826491 0 -0.27 0.0062177826491 0 
-0.28 0.023538290725 0 -0.26 0.023538290725 0 -0.27 0.0408587988 0 
-0.25 0.0408587988 0 -0.26 0.058179306876 0 -0.24 0.058179306876 0 
-0.25 0.075499814952 0 -0.23 0.075499814952 0 -0.24 0.092820323028 0 
-0.22 0.092820323028 0 -0.23 0.1101408311 0 -0.21 0.1101408311 0 
-0.22 0.12746133918 0 -0.2 0.12746133918 0 -0.21 0.14478184725 0 
-0.19 0.14478184725 0 -0.2 0.16210235533 0 -0.18 0.16210235533 0 
-0.19 0.17942286341 0 -0.17 0.17942286341 0 -0.21 0.17942286341 0 
-0.2 0.19674337148 0 -0.22 0.19674337148 0 -0.21 0.21406387956 0 
-0.23 0.21406387956 0 -0.22 0.23138438763 0 -0.24 0.23138438763 0 
-0.23 0.24870489571 0 -0.21 0.24870489571 0 -0.25 0.24870489571 0 
-0.27 0.075499814952 0 -0.22 0.26602540378 0 -0.2 0.26602540378 0 
-0.21 0.28334591186 0 -0.19 0.28334591186 0 -0.31 0.0062177826491 0 
-0.23 -0.16698729811 0 0.11 -0.23626933041 0 -0.2 0.30066641994 0 
-0.18 0.30066641994 0 -0.23 -0.30555136271 0 -0.25 -0.30555136271 0 
0.39 -0.37483339502 0 -0.09 -0.23626933041 0 -0.19 0.31798692801 0 
[...]
CELL_DATA 8442
FIELD FieldData 1
flux 1 8442 double
1.9318906828e-22 1.6217009278e-13 7.1384543474e-13 2.8529658325e-11 2.941479295e-10 4.1733271468e-22 4.9121440709e-11 7.5433738024e-12 1.5400262644e-10 
1.1273014927e-10 6.2177884754e-14 6.5274439394e-16 4.6719071771e-12 2.271043668e-11 7.6806755922e-27 3.2285788015e-13 5.7258484924e-18 2.3740600732e-11 
1.7871018134e-15 1.6990653507e-11 9.6285760672e-12 1.5704362371e-26 1.0574556081e-22 5.7620408747e-20 3.4885150967e-12 1.6073609226e-21 1.9705657596e-20 
2.7211129993e-14 1.6831377051e-15 4.3196107873e-11 5.435904321e-15 2.3531506075e-17 2.2125388488e-10 9.7861782537e-11 2.6699837883e-11 4.3323215697e-11 
1.81862306e-10 1.3443461171e-11 6.0585555017e-12 1.2349250374e-11 5.8357511322e-14 7.7141676939e-27 1.5065921708e-16 1.4977695991e-10 7.9299851229e-13 
1.6486956912e-10 1.1078583715e-10 4.1211602864e-25 8.6447193941e-25 7.1225058659e-16 7.5077610512e-13 4.1508309967e-16 1.6020047958e-23 2.6415660237e-22 
4.5053133226e-15 1.523061771e-11 2.3245787655e-16 7.2718683501e-11 7.5988898558e-11 3.3551297154e-11 4.5180530392e-11 6.8169696241e-228 2.7572543253e-10 
1.1246726616e-118 1.8266697279e-18 3.7180287677e-14 3.0498008647e-18 3.2901418104e-28 3.3965297423e-139 3.0518374851e-11 6.8056023914e-11 2.4058895794e-20 
3.7478877134e-13 1.1838698986e-120 7.4835074793e-14 5.4448470469e-21 2.4646690987e-10 9.3500418735e-11 5.1247522283e-11 9.099754174e-11 5.4391863727e-10 
1.3661535152e-10 1.1278123638e-22 3.2465068795e-09 1.1631903682e-09 6.8154290215e-10 3.4685533998e-09 3.8306569308e-26 4.4435958015e-26 2.1222505548e-125 
2.1222505548e-125 2.2791698551e-12 1.7969200054e-10 2.899503548e-16 1.473560133e-16 1.9097800217e-10 9.3173549165e-12 5.5392553973e-12 1.8540425975e-12 
9.6080275514e-16 5.8224028563e-31 2.9018774616e-14 1.3163770063e-11 2.281543042e-11 5.9005058642e-19 1.1588858396e-11 6.8878717723e-16 9.5363867602e-11 
5.9078308385e-25 3.7561005036e-24 3.5601482649e-27 2.4933656026e-16 4.1934166829e-22 8.3834609432e-23 2.6687894877e-19 9.8425718998e-19 1.0963952546e-10 
1.605416878e-11 4.767094642e-11 1.3630549693e-10 2.7234810885e-10 1.1254673234e-14 7.4905808597e-11 2.1863025767e-11 3.0299771123e-11 1.1192089068e-10 
3.029459196e-12 6.6700631999e-12 2.7539488394e-10 5.0105053054e-10 2.5065568874e-12 8.9151657489e-12 1.2675783163e-27 2.8783580779e-14 9.8741910208e-11 
2.399580979e-15 4.6375306953e-21 5.5851960162e-17 2.513773205e-17 2.5963567201e-13 1.090006824e-11 100.26931621 100.22259589 6.2261427708e-11 
4.7853142041e-11 1.753986429e-11 4.6451967026e-27 1.6969044515e-14 1.5220271514e-10 2.6392916864e-12 2.6649734942e-10 5.5126747437e-16 7.8299582158e-15 
5.6592707886e-23 2.2430258702e-23 4.5136618668e-23 5.7014202801e-23 9.6732523258e-11 5.0478573154e-12 1.6611065548e-15 5.1224024752e-15 8.4631150506e-11 
2.1907225114e-22 3.2602324973e-23 1.8278884127e-12 1.0422000702e-17 6.2142726007e-20 2.3971158441e-14 3.9220476388e-10 8.1197263828e-11 6.2208959805e-21 
2.2822156048e-12 1.9906337422e-10 100.62590449 100.61548769 1.122522131e-21 100.76361181 100.69623206 1.3193586627e-11 9.0482393413e-21 
7.5165422995e-16 7.6404103459e-12 9.309564515e-12 1.7938440197e-29 2.8477604937e-11 4.2702674618e-12 2.410465625e-30 8.2483251462e-15 5.2140313076e-18 
4.7352714243e-20 4.499820682e-27 3.9937652626e-27 1.1104771601e-15 2.8612554713e-19 8.3117854451e-18 1.445364151e-13 3.6429464908e-11 3.0605484316e-10 
2.8409158624e-17 2.4564677064e-10 3.7118567885e-10 1.2700242752e-10 4.3541244758e-08 7.2223709614e-08 1.1957229371e-08 3.8387399971e-08 5.351877911e-10 
1.8949196724e-09 2.0080094192e-09 2.0779870181e-10 2.4533502711e-10 2.9808608406e-09 1.6500703449e-10 4.6861123525e-10 1.5633703467e-09 1.3784064538e-10 
4.7206883796e-09 2.1808723078e-09 1.4235070606e-16 3.5250583838e-08 7.4365031592e-22 1.1252038167e-18 1.2998998405e-18 1.5036712859e-16 7.6594510063e-19 
1.4855106104e-09 3.4447825971e-10 0.42642995361 0.22553507683 0.27186554314 0.43099618244 0.27158692448 5.2658233859e-06 0.23983542 
1.2561207618e-11 4.576379175e-09 0.00010130225374 0.0020397939126 0.0030144436216 0.13307560093 0.2919291831 0.15827142066 0.34645625018 
0.053563076597 0.27285377004 0.13207593072 7.7747038718e-06 0.1220513821 3.6249335723e-11 0.1447500317 3.8994024853e-08 0.040016111325 
9.2387254496e-06 2.531441777e-11 2.6486702801e-06 1.2546641452e-09 0.00025840660049 7.3030099651e-09 4.0530626535e-10 3.0659725017e-12 2.8489505666e-05 
5.0458868599e-17 0.1222859025 0.15596274532 0.72518120318 1.0120348901e-06 1.3068230544e-07 0.13452186051 3.3502897306e-08 0.12821136131 
0.00013050416634 7.0905250765e-08 0.00015124756328 0.17813877024 0.00098998256581 0.03318872119 0.1682938635 1.0741307814e-09 2.2809670719e-23 
2.2704083542e-24 0.040417309381 3.5440241559e-07 5.3801556718e-07 0.0012152558491 0.13374272295 0.051379604219 1.1100873748e-12 0.0060698579119 
0.71397711452 0.0001183925319 1.1474260453e-05 0.062079663237 4.98914171 2.796825084e-06 5.8602471504 6.1284567271e-06 0.16716077178 
0.23917428433 0.12424262996 0.20947861245 4.279216167e-22 0.012763947845 0.0093899337283 0.35360279586 6.741744668 0.019853258604 
0.94069218768 5.331252643e-05 1.0308393694e-05 1.3295152413e-11 6.284357483 0.00040718654952 3.0538318298e-05 2.7587891244e-08 -0.23124316811 
3.2197736312e-05 0.0032323604217 0.023193338736 0.0069310823722 6.535361825e-05 0.00052962408176 1.9715275458e-07 0.24541536626 6.841944966 
0.00017011102081 0.013318533655 0.070078288541 0.19376050414 -0.19541550764 2.8544683437e-08 -0.20444888489 0.17013861762 9.4705905941e-08 
0.00058604860104 0.015430381324 5.218625046e-05 -0.20904107936 0.0044174458072 -0.19649832552 0.4836078438 4.5090526194e-06 -0.17465617694 
8.9841050213e-07 0.15063674361 0.17669214466 -0.22417433976 0.036075647243 0.10340941112 0.17067479192 0.030128497785 2.3351609304e-24 
-0.2084057435 0.0080112388357 3.5987592247e-10 6.6364063376e-10 0.024393593672 0.053373124172 0.18720188045 -0.012291884273 1.0382919491e-07 
0.0020524922087 -0.026556748809 0.01684692125 1.6808253237e-08 0.16525273872 0.43600157948 0.61723904396 0.23532004016 1.9084228631e-05 
0.27520846653 3.5986436067e-07 6.0067533959e-08 4.9958926127 0.18380917242 0.85708417039 0.2418345326 1.1932916298 0.032528694556 
1.7771877903e-07 3.5817250241 6.3253419877e-09 2.7869774557e-13 0.5108725386 0.09483751326 1.9550604765e-09 0.087960708529 0.05185593511 
0.044864742296 9.7412206981e-05 1.3412417516e-11 0.26028040051 0.30737234962 0.028487539545 0.00033509000615 0.0093327869261 1.0532175916e-14 
3.034365075e-05 0.00090775725067 0.00016477745462 1.635522293 0.12996512107 5.6773694526 3.9045546966 2.6130779934e-11 0.01382054114 
1.1145059014 8.2780041062e-12 0.0075932302003 1.3531844987e-06 0.21720617138 0.045213136996 -0.33629005875 1.6291339024e-06 0.05589806405 
0.0090008717728 -0.35131523877 0.5193309114 3.4525580524e-07 0.002758893405 0.15573151167 -0.20696813801 0.49209255522 0.022632864627 
1.5393971226e-10 0.19137706757 0.32419465232 0.063271844373 0.22402019778 6.7515522356 0.029054680417 0.001042515862 5.0882069427e-05 
0.0027288864499 1.8487204275e-11 0.012366643065 0.0001204730446 0.30170479904 0.0142333344 1.8869801307e-06 1.6018441538e-10 3.9720814233e-09 
2.4073758186e-08 -0.20679057222 -0.18237076704 -0.24597085264 0.082799288147 3.6393980689e-14 4.2316466641 0.48354895777 0.033730150168 
2.4649415423e-07 1.6295749677e-10 0.26971075651 0.027606869504 1.6907171331e-25 0.0027540215691 0.068220558209 0.031369444986 3.5312987609e-06 
3.1283282444e-08 0.79844650238 0.032402339573 0.034093723175 -0.18025210048 0.037682601737 1.6258522021 3.1928389568e-07 0.25579227403 
-0.10364748131 0.1414195735 0.0074181074132 2.1065008083e-06 0.2480074882 0.00043744734663 0.026803556272 0.36047711204 -0.21573366473 
0.20198663268 0.052468225822 -0.26507226503 3.8972681681e-09 7.3913935064e-06 0.0038464847919 0.062522894364 -0.2886624762 3.7108378609e-06 
-0.2569653257 0.048984383416 1.4564476753e-05 0.048390148003 -0.13111213143 0.67589243991 7.6043953551e-14 0.051844701168 6.5120116328e-11 
0.23594140078 2.1533958617e-15 0.86088248542 0.46852682006 -0.21214072264 2.2824085683e-06 0.15305242935 0.13406110905 0.50232607839 
1.2131367218e-22 0.27886395196 -0.25983380807 3.8774664778e-08 -0.18814192775 -0.1461414394 0.089273383307 9.0945171723e-05 0.00089308328396 
2.5653856838e-09 -0.037532408906 1.5746209725 0.12559596396 0.091816498599 0.3022611213 0.43987365305 2.8518845848e-08 0.0012316679626 
0.00011818824843 1.5868644642 0.000911949847 0.031784768021 -0.099835782208 0.53045266269 0.014267534752 2.1738423045e-08 0.06368387263 
1.0336730148e-07 0.49485052973 5.3928912302e-05 0.036014878012 0.09574506499 3.3966652835 0.0074217506537 0.21375675966 0.2556451005 
0.017518493544 0.38057280268 0.52251258216 -0.1036609081 0.01340820338 0.00046590439256 0.34693887072 2.0412199165e-15 0.013440473604 
4.1226483979e-07 1.6264022309 0.0024258885159 0.12753799808 0.34182011755 0.00030639711692 1.0492377656e-07 1.3380831658e-06 0.17235056375 
0.35815832566 0.64712051664 1.6128305535e-07 0.029224861191 0.36486405828 5.0489358258e-12 0.74880647516 2.9015220522e-08 0.10164785261 
1.5578033943e-13 0.021245518204 0.3580490425 2.6941937268 0.33632708297 0.66583205686 -0.21091897364 3.8857815309e-14 0.21826346313 
8.295693411e-08 0.17513280418 -0.22763084575 8.0548187465e-13 0.044401306233 0.00073541466193 7.4790414025e-27 0.54784766037 0.0071096697122 
0.0022174918647 0.49085314506 0.060445710143 0.44780641391 6.834338686 0.17838747457 5.4928146692e-09 -0.091562347089 0.34704441285 
0.0029460534907 0.385833781 0.24437460962 -0.13087254697 0.0017048753992 0.75782259763 2.8871287027e-15 9.6767891208e-06 1.6091498342e-10 
0.019651677666 0.27587999542 0.0033213947099 2.026540609e-20 1.8742593182e-14 2.1842523191 5.9022797424e-09 2.1850392423 2.6863387732 
0.0026598928959 9.4578297552e-09 0.20586003267 5.8447605753e-06 0.00013654510666 0.15643063247 0.052969445785 0.019440092326 0.016975505447 
0.050543099191 6.8771670081 0.14608885076 0.12127572162 1.3438450751e-12 2.4649488278e-13 0.76376220393 3.5080933086 0.21483240183 
0.091381728072 2.4338862484 1.9878322787e-07 0.38106210513 1.4747018804e-06 0.73330812529 5.9460927089e-16 -0.059637838944 5.3777089048e-12 
-0.19013655517 -0.22580738017 0.25616573097 0.17767927118 2.0984752171e-07 0.00033989810352 0.25407742212 -0.16931862108 0.00098727429326 
0.040698871504 5.7518241346e-09 6.8055416002e-05 0.37350202229 -0.23217191242 0.29687967289 0.0070723960645 -0.098017217056 1.7316400324e-08 
8.0595971957e-08 0.41122099444 1.0971591694e-07 -0.0012583832947 3.2164962456 0.63285722047 0.048877990504 2.8515897604e-12 0.11893268523 
0.00026690170028 0.18081886297 7.0289698006 0.00016511697636 1.7412402437 0.54737847708 1.9912235953e-07 4.3730068979e-07 -0.090526316809 
3.4826131212e-05 0.036197128511 0.0075625407956 0.16941607601 0.030753187126 0.010505991405 1.7005510336e-18 0.015410783265 7.0893410356e-07 
0.20024365419 0.35185067273 7.2481878932e-05 3.185785586e-08 2.1826245662e-09 0.05843120107 4.1211374005e-10 0.016450047028 0.62191867003 
2.2547251447e-05 -0.23412268432 1.2704470997e-11 5.2887868491e-05 -0.037836441088 0.33702836973 0.33424943265 5.4126448382e-07 3.890325782e-08 
0.087182021931 4.7186420025e-08 0.67108026226 0.30701308505 1.1162958497 2.0681986904e-09 2.9082026035 0.16905507688 0.08551818527 
0.091810357455 0.10725789761 1.1009227855e-08 0.072365969235 0.46188643252 0.41579614967 0.32826489771 4.5034597362e-13 0.33749025739 
0.055240601409 0.79656980102 5.1290759387e-11 0.042430205874 1.4963866148e-10 2.0498071096e-08 0.028139475938 -0.24487027836 -0.24252525769 
0.47588455827 2.690682398 6.8797050686e-06 2.5023615435e-08 6.0053994334e-24 9.1143925975e-221 0.24130197706 3.0844974518e-10 1.9516410424e-05 
1.0167758909 0.53053975404 0.66715583036 0.59474130694 0.12145427147 0.4686876182 0.01081157142 6.9035967133 0.020318248606 
3.0279388837e-06 0.0059523792629 0.16334744649 0.052164954268 3.207214035 0.17537208822 -0.21639221725 2.2874067636e-07 0.55259097981 
0.48111830212 4.8093092202e-10 0.3562327147 1.2148282811e-25 0.18157283014 3.1707662894e-05 5.5746498267e-07 0.83644959434 1.0898056058e-11 
0.27297108079 -0.075619821137 0.3342592389 3.150352197e-06 -0.27738946508 0.62373827253 0.017362312642 0.00017916271708 0.0099589208365 
0.5785253509 0.016723466552 -0.32647792957 1.7479583792e-07 0.0088914147395 0.00072752033596 2.6893285031 7.969504911e-07 0.00050688630397 
3.2451284195 0.0029746061788 2.1333250753e-06 1.0323250673e-09 0.4499901441 -0.20506221284 0.78800082119 0.32982093214 0.3313391261 
5.1695487508e-11 0.093542288868 4.6261888214e-07 0.0016796164214 0.18165112608 0.54922739642 0.037276505098 0.3955442585 2.7112916959e-05 
1.7501344478e-11 9.6984745686e-13 0.35623337169 0.0092639058459 1.0684566743 2.9339515742e-13 0.00048669963575 0.00042852955699 0.3386029993 
0.47820369278 3.5907421184e-05 4.6771276683e-17 0.078865108127 0.0007667694834 0.45162029261 0.00020037098288 0.38867431187 2.4432007629e-08 
2.8903825874e-10 4.9029682798e-15 3.6463542604e-14 -0.34446514675 2.931366778e-09 2.8215333114e-07 0.023828322764 0.66528924263 0.1472102683 
6.3834232422e-06 0.049928356209 2.2757544495 0.16282745266 0.067720470069 1.4159567733e-17 0.54458498032 0.0647965807 3.3424826368e-16 
6.9479585683e-07 0.3833789092 0.036577186447 0.46538905259 0.33315781381 8.9795422945e-25 -0.15920435718 9.1671902383e-05 6.4071922917e-08 
0.71097210884 1.0950008509e-06 6.1863123126 3.3985722394 2.1290333192 1.2183713053e-06 8.4981704537e-08 2.1461335894e-06 4.0602914779e-07 
0.00085663885629 5.4566613409e-06 0.0011480597133 2.2432358563 2.0098308111e-06 0.81659569046 4.0243779058e-13 1.3827146416e-06 1.115269962e-06 
1.3388782415 4.7383571471 6.3089601274e-15 0.00031183944914 1.2522938206e-08 3.8394859136 0.0078971709259 0.068649195277 0.11566942947 
0.29423983221 0.26778275643 1.6920891743e-07 1.2493273478 5.4789852954 0.10934810944 0.34899895661 0.25967744721 4.6303314899e-05 
0.2447841256 6.5758605057e-10 1.0109847911 6.2471456913e-07 -0.13880436324 0.12719234859 5.9241850461 0.03197802068 1.1106138826e-12 
3.9424439712e-07 0.029551715218 0.60021851759 -0.27553648568 1.5658745137e-09 9.8823237529e-12 -0.1812013931 3.0332099049e-12 0.29494616098 
6.0296446516e-09 0.00011355844094 8.8358891794e-24 -0.302400409 1.3532877308e-07 7.921078525e-21 2.6535888135e-06 -0.27731429568 1.0480877802e-07 
0.24599106836 0.36694005793 0.3446326987 8.8168871018e-13 1.0338005612e-19 5.454217092e-13 3.6361215503 1.184769989e-14 0.15415332324 
-0.11077338213 0.12159122704 2.6786855565 0.53957532109 -0.19817540593 0.1585869382 0.51271034161 1.8614405455 1.3702516899e-05 
0.53361069711 1.0331687301 2.1511867913 3.3947096772e-11 2.3209526318e-06 -0.2686196338 4.6530257127e-14 0.19342496822 0.004506762601 
1.2327258414e-14 7.1255865751e-05 2.1195643759e-12 3.0245939717e-09 0.018182802192 0.33442870941 0.069012470107 0.51473984517 0.0015182452929 
3.6797041971e-08 2.1310615463e-06 9.7185988254e-10 8.466587197e-05 0.0004693799197 1.322369475e-05 1.8724417763e-09 1.4467712369e-09 -0.21355029766 
0.0076144663588 0.0014058129908 1.1751520378e-09 5.8635141608e-05 1.7849923926e-10 0.34615648971 1.1584891504e-13 0.37975792762 0.00010429336972 
0.00013192044139 0.0020094101255 0.0084898628723 0.28947287527 6.3569146371e-07 9.8432718463e-10 0.25268805273 2.4791804043e-06 0.47558433009 
0.092713254362 1.3024456971e-10 0.25336564002 0.27734576765 -0.20414897504 2.0208891333 0.020018454383 0.39408878672 -0.25512540849 
0.51520904133 0.52187429363 -0.03769648358 -0.2911000444 0.51674117076 9.4021102434e-07 -0.23252555047 2.2062180198e-07 2.1241350976e-08 
1.051558553 1.7566140517e-13 1.1474102673 0.049999000509 3.4856283455e-06 3.5107017668e-05 0.26679156869 0.27449843506 1.7083192752e-11 
6.2500742916e-09 0.58126360485 1.4574231394 0.0083286510204 2.0544055425e-06 9.7326003679e-06 0.01915069759 2.807713308e-05 -0.20076436503 
2.3610747201e-15 6.0470847351 0.18677466792 -0.30548218312 8.0916379777e-08 1.2403502334e-13 1.7487658949 4.318799783 1.8314224849 
4.1761497089e-06 2.4443663289e-06 0.56419715073 8.4280673868e-08 1.8469004743 0.250512612 -0.35553318394 1.1229547078e-07 0.53503314254 
1.5375571244 0.67421887967 -0.20248674533 0.25743600759 1.9929205886e-11 -0.21361344171 -0.073810388456 0.069057937511 0.00022308538991 
1.8362356354e-08 1.6948527117 0.18665210517 1.7343868575 0.11522112759 5.4147499225e-17 0.47087577512 3.3094572438 0.011145908603 
0.0001236293807 0.51815701098 0.0019397375463 -0.25446259041 2.6856269395e-05 1.6474991013e-05 2.7438728587e-09 0.25193178022 3.551662446e-14 
1.1370854009e-07 0.017251966287 2.4476093631e-11 6.0783883805e-05 0.0021807394513 6.7882828098e-07 1.7045446344e-13 3.1314158761e-08 1.4780350285e-05 
2.4024516535e-10 1.4657657523e-12 1.9365249686 2.3392504935e-06 0.51562245613 0.0040872422448 2.8124837326 0.052951554251 0.08640272747 
0.25114395324 2.744861052 6.0694313911e-06 2.0681691804 -0.26299283739 2.6028611363e-13 2.9921205734e-05 0.21903853878 0.57632090364 
-0.076311971283 5.9276752086e-206 2.1862474456e-206 2.0948636196e-07 0.0060502568754 -0.18035579895 5.7447515374 0.18759680581 3.7922472528 
0.48636968163 0.023505111015 0.094407755462 0.47912956837 0.35526721405 0.53699061679 -0.34208047046 0.07938839774 2.115355738 
-0.14468043568 0.00029613799897 0.13979159279 1.3202603779e-06 0.41626447343 0.29402676269 5.8693787759e-06 7.298518141 0.00013443672621 
0.23611537524 5.4929210018 0.00091932398849 -0.24270894148 0.27214575788 2.1448187561e-06 0.35516681988 0.58516441846 2.5635216615e-09 
3.0254443291 0.049024583496 4.621757408e-09 0.2062069 7.4874423151e-221 0.43307536953 0.00029248920413 5.0682499933e-05 0.48971978381 
0.087279635974 2.5011868448e-07 -0.33420248432 5.8198856188e-05 0.76550898325 0.38262233844 9.9078464704e-07 0.0077943403692 1.8734609527e-07 
8.7712063847e-09 0.0014879517892 1.3206629953e-09 5.8658695825e-12 -0.26893070613 0.2899444491 5.0823434893e-10 0.13970172798 0.56593470102 
1.8337860725 0.26992920953 6.620118353 0.42147540973 5.9283712439e-18 3.0191719512e-13 0.0082838931643 1.9355625663e-12 0.0083346109123 
0.069493459017 6.6283385463e-05 0.0054578580239 3.3486525683 0.0038869218044 0.031993859559 -0.21759288083 0.72379009357 2.261176272e-07 
0.29306425969 0.4196086286 9.7615963902e-10 0.091379106464 0.051967485068 5.5193175847e-14 0.13512948346 2.1883993506e-08 -0.18369172932 
0.15866587382 1.9524266763 4.6062934593e-08 0.38235974272 1.3292001973e-06 0.002053288116 -0.2745988282 8.4975961122e-23 0.0080637070122 
1.3359605816 1.2834521348e-05 1.0984616151 2.8179831861e-06 -0.26057211037 -0.026122456743 -0.24304708281 0.0093690763388 -0.13909035739 
0.0055008343074 0.00015703868602 0.78458550281 7.1102666874e-06 0.034969419576 1.114288711 0.00037355819477 0.25551152459 2.6263461901 
2.1422666844 1.3315498941 0.061804979346 3.7801444061e-09 0.22027041324 7.8183908589e-07 0.24714462516 0.00044472348192 0.00020602044399 
2.8859297344e-05 0.49216039583 -0.0031773837487 0.14846841144 0.010132425056 2.1636932921e-08 1.6191203064e-14 3.514744367 4.908217897e-19 
0.094217076115 1.3225631985 0.00068888496991 1.0025179329 1.6061454585 -0.11720543416 0.83147866098 0.52267937139 1.6515350186e-05 
3.3912277549e-10 7.468175743e-09 2.481903196e-10 0.041810704324 0.00071549835089 4.9565204067 3.7291208888e-05 0.00018916521953 2.6856298637e-08 
3.7242770506e-10 0.015214420617 0.0043476921776 0.00086333264784 0.75467075238 0.0010752521199 1.8485123722e-15 9.7776085583e-13 6.6536940104e-05 
2.3931659512 0.34630358287 2.9873037593e-05 3.5582681693e-22 0.56112323532 3.3683233092 0.003036984067 2.3212493971e-11 0.092541922001 
0.48887652979 4.1821566744e-05 5.4521918001 0.49089308911 -0.21225591285 -0.13966495022 4.3864300868e-11 3.0185614546e-13 6.8327186573e-20 
0.0026162167668 0.01810295684 0.0040800296688 1.4737613175 1.4972965604e-07 -0.11902666667 0.13667212544 1.2066925004e-08 6.7027074439e-06 