# vtk DataFile Version 4.2
vtk output
ASCII
DATASET UNSTRUCTURED_GRID
POINTS 4342 double
-0.6 -0.6 0 0.6 -0.6 0 0.6 0.6 0 
-0.6 0.6 0 0 0 0 -0.58 -0.6 0 
-0.56 -0.6 0 -0.54 -0.6 0 -0.52 -0.6 0 
-0.5 -0.6 0 -0.48 -0.6 0 -0.46 -0.6 0 
-0.44 -0.6 0 -0.42 -0.6 0 -0.4 -0.6 0 
-0.38 -0.6 0 -0.36 -0.6 0 -0.34 -0.6 0 
-0.32 -0.6 0 -0.3 -0.6 0 -0.28 -0.6 0 
-0.26 -0.6 0 -0.24 -0.6 0 -0.22 -0.6 0 
-0.2 -0.6 0 -0.18 -0.6 0 -0.16 -0.6 0 
-0.14 -0.6 0 -0.12 -0.6 0 -0.1 -0.6 0 
-0.08 -0.6 0 -0.06 -0.6 0 -0.04 -0.6 0 
-0.02 -0.6 0 -8.881784197e-16 -0.6 0 0.02 -0.6 0 
0.04 -0.6 0 0.06 -0.6 0 0.08 -0.6 0 
0.1 -0.6 0 0.12 -0.6 0 0.14 -0.6 0 
0.16 -0.6 0 0.18 -0.6 0 0.2 -0.6 0 
0.22 -0.6 0 0.24 -0.6 0 0.26 -0.6 0 
0.28 -0.6 0 0.3 -0.6 0 0.32 -0.6 0 
0.34 -0.6 0 0.36 -0.6 0 0.38 -0.6 0 
0.4 -0.6 0 0.42 -0.6 0 0.44 -0.6 0 
0.46 -0.6 0 0.48 -0.6 0 0.5 -0.6 0 
0.52 -0.6 0 0.54 -0.6 0 0.56 -0.6 0 
0.58 -0.6 0 0.6 -0.58 0 0.6 -0.56 0 
0.6 -0.54 0 0.6 -0.52 0 0.6 -0.5 0 
0.6 -0.48 0 0.6 -0.46 0 0.6 -0.44 0 
0.6 -0.42 0 0.6 -0.4 0 0.6 -0.38 0 
0.6 -0.36 0 0.6 -0.34 0 0.6 -0.32 0 
0.6 -0.3 0 0.6 -0.28 0 0.6 -0.26 0 
0.6 -0.24 0 0.6 -0.22 0 0.6 -0.2 0 
0.6 -0.18 0 0.6 -0.16 0 0.6 -0.14 0 
0.6 -0.12 0 0.6 -0.1 0 0.6 -0.08 0 
0.6 -0.06 0 0.6 -0.04 0 0.6 -0.02 0 
0.6 -8.881784197e-16 0 0.6 0.02 0 0.6 0.04 0 
0.6 0.06 0 0.6 0.08 0 0.6 0.1 0 
0.6 0.12 0 0.6 0.14 0 0.6 0.16 0 
0.6 0.18 0 0.6 0.2 0 0.6 0.22 0 
0.6 0.24 0 0.6 0.26 0 0.6 0.28 0 
0.6 0.3 0 0.6 0.32 0 0.6 0.34 0 
0.6 0.36 0 0.6 0.38 0 0.6 0.4 0 
0.6 0.42 0 0.6 0.44 0 0.6 0.46 0 
0.6 0.48 0 0.6 0.5 0 0.6 0.52 0 
0.6 0.54 0 0.6 0.56 0 0.6 0.58 0 
0.58 0.6 0 0.56 0.6 0 0.54 0.6 0 
0.52 0.6 0 0.5 0.6 0 0.48 0.6 0 
0.46 0.6 0 0.44 0.6 0 0.42 0.6 0 
0.4 0.6 0 0.38 0.6 0 0.36 0.6 0 
0.34 0.6 0 0.32 0.6 0 0.3 0.6 0 
0.28 0.6 0 0.26 0.6 0 0.24 0.6 0 
0.22 0.6 0 0.2 0.6 0 0.18 0.6 0 
0.16 0.6 0 0.14 0.6 0 0.12 0.6 0 
0.1 0.6 0 0.08 0.6 0 0.06 0.6 0 
0.04 0.6 0 0.02 0.6 0 8.881784197e-16 0.6 0 
-0.02 0.6 0 -0.04 0.6 0 -0.06 0.6 0 
-0.08 0.6 0 -0.1 0.6 0 -0.12 0.6 0 
-0.14 0.6 0 -0.16 0.6 0 -0.18 0.6 0 
-0.2 0.6 0 -0.22 0.6 0 -0.24 0.6 0 
-0.26 0.6 0 -0.28 0.6 0 -0.3 0.6 0 
-0.32 0.6 0 -0.34 0.6 0 -0.36 0.6 0 
-0.38 0.6 0 -0.4 0.6 0 -0.42 0.6 0 
-0.44 0.6 0 -0.46 0.6 0 -0.48 0.6 0 
-0.5 0.6 0 -0.52 0.6 0 -0.54 0.6 0 
-0.56 0.6 0 -0.58 0.6 0 -0.6 0.58 0 
-0.6 0.56 0 -0.6 0.54 0 -0.6 0.52 0 
-0.6 0.5 0 -0.6 0.48 0 -0.6 0.46 0 
-0.6 0.44 0 -0.6 0.42 0 -0.6 0.4 0 
-0.6 0.38 0 -0.6 0.36 0 -0.6 0.34 0 
-0.6 0.32 0 -0.6 0.3 0 -0.6 0.28 0 
-0.6 0.26 0 -0.6 0.24 0 -0.6 0.22 0 
-0.6 0.2 0 -0.6 0.18 0 -0.6 0.16 0 
-0.6 0.14 0 -0.6 0.12 0 -0.6 0.1 0 
-0.6 0.08 0 -0.6 0.06 0 -0.6 0.04 0 
-0.6 0.02 0 -0.6 8.881784197e-16 0 -0.6 -0.02 0 
-0.6 -0.04 0 -0.6 -0.06 0 -0.6 -0.08 0 
-0.6 -0.1 0 -0.6 -0.12 0 -0.6 -0.14 0 
-0.6 -0.16 0 -0.6 -0.18 0 -0.6 -0.2 0 
-0.6 -0.22 0 -0.6 -0.24 0 -0.6 -0.26 0 
-0.6 -0.28 0 -0.6 -0.3 0 -0.6 -0.32 0 
-0.6 -0.34 0 -0.6 -0.36 0 -0.6 -0.38 0 
-0.6 -0.4 0 -0.6 -0.42 0 -0.6 -0.44 0 
-0.6 -0.46 0 -0.6 -0.48 0 -0.6 -0.5 0 
-0.6 -0.52 0 -0.6 -0.54 0 -0.6 -0.56 0 
-0.6 -0.58 0 0.25 -0.58267949192 0 -0.25 -0.58267949192 0 
-0.24969338163 0.58271630631 0 0.58313820224 0.25089999788 0 -0.58073798855 0.23055415423 0 
0.23 0.58267949192 0 0.5822727489 -0.23023532651 0 -0.58232885758 -0.22986293355 0 
-0.13 -0.58267949192 0 0.58091085312 0.12866705289 0 -0.13050081 0.58443309409 0 
0.13 -0.58267949192 0 0.11 0.58267949192 0 0.58128887437 -0.11185352307 0 
-0.58641004823 0.11046978504 0 -0.58097603768 -0.11235367818 0 -0.01 0.5841811861 0 
0.01 -0.58267949192 0 0.58217507245 0.011050809949 0 -0.58206506685 -0.010494327869 0 
0.58255589861 -0.33012459525 0 -0.58098267687 0.33246863147 0 0.33 0.58267949192 0 
-0.58090018381 -0.32734039494 0 0.35 -0.58267949192 0 0.58210978525 0.34851718814 0 
-0.34984356206 0.58269328777 0 -0.35 -0.58267949192 0 -0.58404031657 -0.41125547479 0 
0.58404031657 -0.41125547479 0 0.41 0.58267949192 0 -0.58127371569 0.40748932397 0 
0.43 -0.58267949192 0 0.58287041801 0.42966930632 0 -0.43030661837 0.58271630631 0 
-0.43 -0.58267949192 0 0.49 0.58267949192 0 0.58119455181 -0.49272606834 0 
-0.58196591894 0.48785347999 0 -0.58132747275 -0.49216380446 0 0.58099079541 0.19297246443 0 
-0.18926154554 0.58413656679 0 0.05 0.58267949192 0 0.19 -0.58267949192 0 
-0.07 -0.58267949192 0 0.58212565717 -0.051217328366 0 -0.07 0.58267949192 0 
0.58245912871 0.070013739955 0 0.07 -0.58267949192 0 0.58168449499 -0.17128271923 0 
-0.58574378526 0.05125913651 0 0.17050081 0.58443309409 0 -0.58168449499 -0.17128271923 0 
-0.58573295936 0.16883725031 0 -0.19 -0.58267949192 0 0.49 -0.58267949192 0 
-0.49050081 0.58443309409 0 0.58415322569 0.48921568047 0 -0.49 -0.58267949192 0 
0.53 -0.58267949192 0 0.58203286059 0.53119351335 0 -0.53 0.58267949192 0 
-0.58222913959 -0.53018403998 0 0.58202539473 0.28969699417 0 -0.29 0.58267949192 0 
-0.58451963751 -0.45057023735 0 -0.58267949192 -0.07 0 -0.29 -0.58267949192 0 
-0.03 -0.58267949192 0 0.39 -0.58267949192 0 0.58307204747 0.39068583015 0 
-0.39 0.58373814012 0 0.29 -0.58267949192 0 0.58208722445 -0.45065236781 0 
0.45042926572 0.58129593389 0 -0.58211115223 0.44955595746 0 -0.58432719917 -0.36932980655 0 
-0.58406793967 -0.26883049013 0 0.5820526686 -0.36901719046 0 0.37 0.58267949192 0 
-0.5823078615 0.36998422007 0 -0.39 -0.58267949192 0 -0.58211498987 0.271305057 0 
-0.53 -0.58267949192 0 0.58222913959 -0.53018403998 0 0.53 0.58373814012 0 
-0.58219774606 0.53090792334 0 0.58030324732 -0.28813008885 0 0.29050081 0.58443309409 0 
-0.58188605505 -0.56816348762 0 0.56922649731 -0.58312607391 0 0.58067979276 0.57009350437 0 
-0.57009384201 0.58146184644 0 0.54987108288 -0.58275392226 0 0.53997851381 -0.5653713889 0 
0.51999641897 -0.56536105136 0 0.52999582213 -0.54804088787 0 0.50999870685 -0.54803922237 0 
0.51999908816 -0.53071849415 0 0.4999996325 -0.53071817987 0 0.50999978678 -0.51339758273 0 
0.48999990321 -0.5133975155 0 0.49999994833 -0.49607698138 0 0.47999997526 -0.49607696583 0 
0.48999998726 -0.47875645082 0 0.46999999375 -0.47875644708 0 0.47999999684 -0.46143593722 0 
0.45999999843 -0.4614359363 0 0.46999999921 -0.44411542777 0 0.44999999961 -0.44411542755 0 
0.4599999998 -0.42679491936 0 0.4399999999 -0.4267949193 0 0.44999999995 -0.4094744112 0 
0.42999999998 -0.40947441118 0 0.43999999999 -0.3921539031 0 0.41999999999 -0.3921539031 0 
0.43 -0.37483339502 0 0.41 -0.37483339502 0 0.42 -0.35751288694 0 
0.4 -0.35751288694 0 0.41 -0.34019237886 0 0.39 -0.34019237886 0 
0.4 -0.32287187079 0 0.38 -0.32287187079 0 0.39 -0.30555136271 0 
0.37 -0.30555136271 0 0.38 -0.28823085464 0 0.36 -0.28823085464 0 
0.37 -0.27091034656 0 0.35 -0.27091034656 0 0.36 -0.25358983849 0 
0.34 -0.25358983849 0 0.35 -0.23626933041 0 0.33 -0.27091034656 0 
0.32 -0.25358983849 0 0.31 -0.27091034656 0 0.3 -0.25358983849 0 
0.29 -0.27091034656 0 0.28 -0.25358983849 0 0.27 -0.27091034656 0 
0.26 -0.25358983849 0 0.25 -0.27091034656 0 0.27 -0.23626933041 0 
0.24 -0.25358983849 0 0.23 -0.27091034656 0 0.22 -0.25358983849 0 
0.21 -0.27091034656 0 0.2 -0.25358983849 0 0.19 -0.27091034656 0 
0.18 -0.25358983849 0 0.17 -0.27091034656 0 0.19 -0.23626933041 0 
0.16 -0.25358983849 0 0.15 -0.27091034656 0 0.14 -0.25358983849 0 
0.13 -0.27091034656 0 0.12 -0.25358983849 0 0.11 -0.27091034656 0 
0.1 -0.25358983849 0 0.09 -0.27091034656 0 0.08 -0.25358983849 0 
0.07 -0.27091034656 0 0.06 -0.25358983849 0 0.05 -0.27091034656 0 
0.04 -0.25358983849 0 0.03 -0.27091034656 0 0.02 -0.25358983849 0 
0.01 -0.27091034656 0 -1.7474921972e-14 -0.25358983849 0 -0.01 -0.27091034656 0 
-0.02 -0.25358983849 0 -0.03 -0.27091034656 0 -0.04 -0.25358983849 0 
-0.05 -0.27091034656 0 -0.06 -0.25358983849 0 -0.07 -0.27091034656 0 
-0.08 -0.25358983849 0 -0.09 -0.27091034656 0 -0.1 -0.25358983849 0 
-0.11 -0.27091034656 0 -0.12 -0.25358983849 0 -0.13 -0.27091034656 0 
-0.14 -0.25358983849 0 -0.15 -0.27091034656 0 -0.16 -0.25358983849 0 
-0.17 -0.27091034656 0 -0.18 -0.25358983849 0 -0.19 -0.27091034656 0 
-0.2 -0.25358983849 0 -0.21 -0.27091034656 0 -0.22 -0.25358983849 0 
-0.21 -0.23626933041 0 -0.23 -0.23626933041 0 -0.22 -0.21894882233 0 
-0.23 -0.27091034656 0 -0.24 -0.21894882233 0 -0.23 -0.20162831426 0 
-0.25 -0.20162831426 0 -0.24 -0.18430780618 0 -0.26 -0.18430780618 0 
-0.25 -0.16698729811 0 -0.27 -0.16698729811 0 -0.26 -0.14966679003 0 
-0.27 -0.20162831426 0 -0.28 -0.14966679003 0 -0.27 -0.13234628196 0 
-0.29 -0.13234628196 0 -0.28 -0.11502577388 0 -0.3 -0.11502577388 0 
-0.29 -0.097705265805 0 0.22 -0.28823085464 0 0.1 -0.28823085464 0 
-0.1 -0.28823085464 0 -0.22 -0.28823085464 0 -0.24 -0.28823085464 0 
0.02 -0.28823085464 0 -0.31 -0.13234628196 0 -0.31 -0.097705265805 0 
-0.3 -0.080384757729 0 -0.28 -0.080384757729 0 -0.29 -0.063064249654 0 
-0.31 -0.063064249654 0 -0.3 -0.045743741578 0 -0.28 -0.045743741578 0 
-0.29 -0.028423233502 0 -0.27 -0.028423233502 0 -0.28 -0.011102725427 0 
-0.3 -0.011102725427 0 -0.29 0.0062177826491 0 -0.27 0.0062177826491 0 
-0.28 0.023538290725 0 -0.26 0.023538290725 0 -0.27 0.0408587988 0 
-0.25 0.0408587988 0 -0.26 0.058179306876 0 -0.24 0.058179306876 0 
-0.25 0.075499814952 0 -0.23 0.075499814952 0 -0.24 0.092820323028 0 
-0.22 0.092820323028 0 -0.23 0.1101408311 0 -0.21 0.1101408311 0 
-0.22 0.12746133918 0 -0.2 0.12746133918 0 -0.21 0.14478184725 0 
-0.19 0.14478184725 0 -0.2 0.16210235533 0 -0.18 0.16210235533 0 
-0.19 0.17942286341 0 -0.17 0.17942286341 0 -0.21 0.17942286341 0 
-0.2 0.19674337148 0 -0.22 0.19674337148 0 -0.21 0.21406387956 0 
-0.23 0.21406387956 0 -0.22 0.23138438763 0 -0.24 0.23138438763 0 
-0.23 0.24870489571 0 -0.21 0.24870489571 0 -0.25 0.24870489571 0 
-0.27 0.075499814952 0 -0.22 0.26602540378 0 -0.2 0.26602540378 0 
-0.21 0.28334591186 0 -0.19 0.28334591186 0 -0.31 0.0062177826491 0 
-0.23 -0.16698729811 0 0.11 -0.23626933041 0 -0.2 0.30066641994 0 
-0.18 0.30066641994 0 -0.23 -0.30555136271 0 -0.25 -0.30555136271 0 
0.39 -0.37483339502 0 -0.09 -0.23626933041 0 -0.19 0.31798692801 0 
[...]
CELL_DATA 8442
FIELD FieldData 1
flux 1 8442 double
1.0655036356e-36 6.9078597342e-26 1.6150794885e-24 -2.8736675123e-20 5.1942924746e-20 1.4873651305e-36 5.0465930004e-22 5.3114626297e-24 -2.489444945e-19 
9.4651369411e-20 1.051966822e-26 3.6494297333e-28 2.7112717691e-22 1.3731509571e-21 4.4529494793e-42 2.7989605265e-25 1.6727674951e-31 -1.8106947174e-20 
2.5677357375e-28 3.9283379257e-22 6.7335049913e-22 6.7137109209e-42 2.1276546671e-37 2.3042083366e-34 5.0872213268e-24 1.3294244445e-36 4.5121995665e-34 
1.9124839856e-26 3.7610992463e-28 3.233200378e-21 2.1851072712e-27 1.7707759198e-30 -1.6371513391e-20 -9.6639937124e-21 1.4354005387e-21 -2.2110153475e-21 
-3.4398158735e-21 -1.6125312631e-21 1.3787729701e-22 1.4968186921e-22 1.0436379759e-25 4.5095348266e-42 8.212855362e-30 -1.2144143675e-19 4.3449006687e-24 
7.3202541902e-22 6.411204692e-22 3.1402642349e-40 3.5162015752e-40 1.5177304145e-28 1.6476543111e-24 8.8908771256e-29 2.4189196184e-38 1.3037154506e-37 
4.2157927289e-28 4.8814000979e-21 1.2104576174e-29 -5.223429282e-21 2.4375484364e-20 5.41612124e-21 8.0990552054e-21 6.8169696241e-228 1.7457757555e-19 
1.1246726616e-118 8.3561297563e-33 6.1992038561e-27 9.7981293419e-32 4.6825650505e-44 3.3965297423e-139 4.7194223531e-22 5.669175627e-22 2.8383039187e-34 
2.8770523626e-25 1.1838698986e-120 7.3194106758e-26 1.5437213211e-35 -6.8396230564e-20 -7.556005779e-20 8.9386927392e-22 1.6474489646e-21 3.5672049133e-19 
5.352345743e-20 4.896288192e-37 7.439879619e-20 1.349318134e-20 -2.4459660677e-19 -8.4895946872e-19 1.7644454821e-41 1.0362156774e-41 2.1222505548e-125 
2.1222505548e-125 4.253718857e-24 -5.9259613221e-20 8.1148288319e-30 3.1735141136e-30 2.8762380945e-20 -2.977653708e-21 6.2247850438e-23 2.2141979412e-23 
4.9577756631e-28 5.2314836374e-47 1.4018406947e-26 4.3046221121e-23 5.9494227515e-23 1.6472732951e-32 1.9380150563e-23 1.1338339778e-28 -1.8898739208e-20 
8.7367001861e-40 1.5049791034e-39 8.6305590752e-43 1.5584281818e-29 1.2601478407e-36 2.1324043446e-37 4.990101008e-34 2.0614440954e-32 -4.026494223e-20 
4.1299446975e-23 1.8050071479e-21 4.096304116e-21 -7.2573964265e-19 5.5278015739e-27 -1.410590471e-19 4.2091048e-22 3.4300327949e-22 9.659444002e-21 
9.9267798411e-23 -1.9814655127e-23 3.8667269884e-19 9.7067140143e-20 2.0406609395e-24 9.9329076246e-23 2.8229726347e-43 6.0318574068e-27 -1.3729395018e-20 
6.2447136876e-28 3.5879085464e-35 1.3051516815e-30 6.7558577489e-31 6.6756472822e-26 -1.015671813e-21 1.2042556543 1.2023381273 -3.7169710449e-20 
1.2802879818e-21 4.6614010306e-22 1.4989973361e-42 1.5841344638e-26 1.0521807575e-20 1.5863507611e-24 -2.8376035971e-19 4.1482973385e-29 1.2993892132e-27 
8.8148395061e-38 1.3722902325e-38 4.9921309122e-38 1.5012242377e-37 5.8402758149e-20 1.7861183431e-23 1.0781833939e-28 3.1790202853e-28 -9.8895966487e-21 
1.3098196623e-37 4.8336446792e-38 -2.8607702541e-25 2.9685063974e-31 1.0619809953e-34 8.9449571148e-27 1.7887972161e-19 -3.2322088763e-21 4.9902330812e-35 
3.0134179101e-24 6.0425601982e-20 1.1926539001 1.1974233579 3.3685579911e-36 1.191495765 1.1928263278 4.6909549807e-23 1.3242212857e-35 
8.7360232119e-29 6.3243071051e-22 4.4583227669e-22 3.8786614825e-45 -2.0657029514e-20 2.0061614303e-24 6.2441218557e-46 1.2134255432e-27 3.191809203e-32 
1.5025077313e-34 2.7408291973e-42 9.0608990228e-43 2.9900649945e-28 6.4141300329e-34 4.1379310821e-32 4.2249586837e-27 7.9784036794e-24 2.0524247641e-21 
1.6227518718e-31 3.0176414467e-20 2.3878186716e-22 2.3403921045e-22 -6.0247491655e-17 2.1295400011e-17 3.2802283712e-18 1.6088549654e-17 -5.1965227799e-20 
-2.7619491082e-18 -1.758102636e-18 -1.9978326705e-20 8.79125758e-21 2.728520048e-18 -3.511800064e-21 -1.6800090143e-20 -3.5284555536e-20 1.9740121175e-21 
-3.2854465979e-19 -8.4205400585e-19 2.3782836208e-30 -2.8582317443e-17 2.7674115442e-36 7.6612965544e-33 7.6820552076e-33 1.7434384655e-30 3.7079931618e-33 
1.1870976045e-21 4.2856987146e-20 0.0068287560744 0.00021516900331 0.00029435859117 0.0043467916154 -0.00016902328008 3.748610096e-15 -7.2151463135e-05 
4.0172731123e-24 1.3717589468e-20 1.7433238102e-14 2.7772731871e-12 7.3393985169e-12 -4.1212537692e-05 0.00084392746397 -3.5066675777e-05 0.0024095228722 
-3.2586311661e-07 -0.00074291802128 -4.3006733937e-05 3.2953400545e-16 -3.0954459286e-05 2.3081651064e-23 -3.9425010557e-05 1.9069931818e-19 -5.2329181515e-07 
3.6617671174e-13 1.1407076403e-23 -8.6013696447e-15 4.0232829037e-19 2.5016497588e-11 6.9251613392e-18 3.2146895184e-22 6.4785601464e-25 4.3494667799e-13 
3.3932714197e-31 -1.977182409e-05 -4.3335552383e-05 0.005239168608 1.140695654e-14 -1.7140883109e-16 -2.2285705154e-05 2.9850224161e-17 -3.2911154693e-05 
2.8031140203e-11 5.4603594156e-19 2.8277325163e-12 -6.3552699651e-05 7.9686701416e-13 -4.7231946324e-08 -8.1998912973e-05 1.5122565406e-21 5.568777272e-39 
8.7656644124e-40 6.2597993572e-08 3.8746970726e-18 5.6974255261e-18 -1.8495772508e-10 -5.051144709e-05 2.1269848844e-07 4.8826669272e-25 5.5624965235e-09 
4.5338709466e-07 7.974286839e-13 -4.1648252278e-13 1.4793119292e-06 0.00024258228693 8.3078440234e-17 0.00054192929206 -5.414780169e-14 -7.8701120677e-05 
-0.00020187556353 -0.15195430605 6.0404349803 4.6562042596e-37 -1.2551163013e-07 4.7491209322e-11 -0.010701641509 0.0014951500983 1.8762997256e-07 
9.9924576388e-07 1.0131293719e-13 2.7571546476e-13 1.4645968948e-23 0.031710052987 1.3899605012e-13 -5.6741890194e-13 2.0694615315e-16 -1.5403421348 
-3.5730130762e-12 -7.0440763932e-09 2.5294127141e-07 -7.6325018147e-08 1.2624628454e-12 1.2623480872e-11 6.7432016205e-16 -0.0002561003754 0.0028840534379 
6.6254851234e-13 1.3110112721e-08 -6.3255881564e-06 -9.407652363e-05 -1.9699905739 4.796372454e-17 -1.7954836372 -9.7478168993e-05 1.6688295754e-16 
2.5368698737e-10 1.4066913824e-07 3.0200760446e-13 -1.7857109665 -3.9890851321e-09 -1.9955952124 6.4616010021 1.9923345808e-13 -2.0543596618 
1.3007298964e-15 7.4529614099 -0.00015012589397 -1.0339463813 5.0178546243 -1.2393683962e-06 -6.6680452007e-05 -2.7225136365e-07 7.131389214e-40 
-1.3131250179 -5.79472074e-09 -7.133645392e-19 2.140756119e-21 9.5028975891e-08 -5.5392740115e-07 -0.10146953578 3.2607351674 6.2744239532e-16 
8.1714619496e-10 3.3737732985 -3.5608416967e-08 6.141771134e-19 -9.8680523808e-05 -9.2200777499e-05 2.3304609174 -0.00034021107834 1.786540549e-15 
-0.00077714763862 4.3963370382e-15 3.1397161188e-17 0.067899592355 -7.5669622217e-05 2.0627192569 -0.00050043361818 0.021215272532 -4.466099401e-07 
1.5688008526e-15 0.10532171785 1.825550469e-18 1.1259869051e-25 0.00064113395875 5.5307723694e-09 -1.2244190404e-17 -1.520589815e-05 1.2472191405e-09 
-3.5708209628e-07 -2.3227753317e-11 1.2564831167e-23 -0.053372529926 -0.03264946586 -1.0410442473e-07 2.6125332343e-12 -4.0953248441e-08 1.7099553971e-27 
2.6916232066e-14 -2.0399133479e-10 1.0178240809e-12 0.94094820869 -4.6700182934e-05 0.040228851153 0.047399825326 2.3101172604e-24 1.3232908703e-07 
1.5128114061 1.2786821389e-24 -7.4435062975e-09 9.2629436651e-16 2.6855970563e-08 2.5014710428e-07 -1.4697644181 -2.3830631527e-14 9.1172979636e-07 
4.7660359906e-08 -1.4934863094 -0.0017242566788 1.3824932685e-15 1.3178922173e-11 5.2920389995e-08 -1.9299021207 4.6983744393 3.9059367321e-08 
2.4027598971e-22 9.4791820999e-08 3.0697715289e-05 -6.4093752001e-06 7.391149754 0.0090205186487 4.2670926106e-10 9.6618080346e-13 1.8915327348e-14 
4.2631522471e-09 1.5929738914e-24 -7.9645482434e-08 1.4221677433e-13 0.20098730716 3.0686906396e-08 9.658047062e-15 1.1770401108e-22 -6.3161950996e-18 
2.6334350816e-17 -2.083406935 -2.1781429095 -0.20934603185 1.3263114058e-08 1.6054588825e-27 0.00011986986705 1.7901427804e-07 -7.6316148026e-07 
-5.4758852624e-16 3.6974181094e-23 6.9854729079e-05 -4.7993033774e-08 3.2192932775e-41 0.75485096339 -5.3576963787e-06 -8.6946884424e-07 -1.9165928594e-14 
-5.6674814636e-16 9.2013269278 -8.636069487e-07 1.5134345788e-07 -1.2557543545 -0.21858782966 0.88744302973 4.3765144752e-17 6.9351919422 
-1.5772784417 -4.9761706479e-05 -3.0843736539e-08 3.1997856979e-15 -0.00011669955794 4.9004301547e-13 1.8605424161e-07 0.00020140314971 -1.7753067887 
4.9424872553 1.4874090324e-06 -2.0560041864 2.7722015081e-20 1.8119963788e-15 3.7755493954e-09 -2.8402231027e-06 -0.85421219869 3.7738022671e-16 
-1.9928364161 5.6952063875 -2.5214404797e-13 -7.1554019586e-07 2.6924902656 16.190821171 1.0530839007e-26 2.1166926485 5.2755159885e-23 
4.863541763 2.3938523902e-28 0.17709628291 -0.0067013047655 -1.1900881933 4.1784997656e-17 -8.743704411e-06 7.2317581687 -0.00042589504442 
6.6706463945e-38 1.487803947e-05 -1.9004744948 3.4958961413e-18 -0.30010143936 -0.67181136079 -3.240230303e-06 -4.2340340928e-12 6.7530280913e-10 
6.147796694e-21 2.7080813682 0.027470297599 -2.2735505987e-05 -1.5966482872e-05 -0.029778380896 3.4023453675 4.0006675325e-19 2.4773726196e-12 
4.5282624667e-12 0.54564822618 2.1275544706e-10 7.6369091624e-08 -0.66706664738 4.59522367 1.1149755136e-08 7.9354442847e-20 -2.7410033298e-06 
6.328638737e-18 8.455434766 1.5947945264e-12 -7.5660707073e-07 5.0363995162 4.0403222235e-05 -5.5764845518e-08 -2.7079945265e-05 1.2403851606e-05 
-3.1883113209e-07 3.2845035728e-07 0.12584425355 2.3897979079 -2.0724265203e-07 3.6248916231e-13 -0.001963064446 5.7102316659e-29 3.6340907258e-08 
-9.2633968033e-16 3.789402534e-06 -1.1179843313e-09 -3.6292690296e-05 -0.007641865506 9.5176391002e-14 4.9567006922e-19 -3.5981508729e-15 7.8473738411 
0.21356555171 13.726679307 -7.2028745654e-16 1.9211767499e-07 -0.0062666402818 1.2774181587e-24 5.4344625328 -5.9789613136e-17 -1.7935914322e-05 
3.4636454346e-26 -2.2870489355e-07 3.3537422449e-06 0.050219554142 -0.013827544756 5.8107878508 -1.7989762138 2.6117928488e-27 7.2568233796e-05 
2.7284829732e-16 -3.2457913147e-05 -1.6438296485 2.1426276233e-25 4.3476866206 2.1881339332e-12 1.7413037211e-42 -0.00072960892936 -3.319164151e-08 
6.3434278556e-12 0.0018580482047 5.375909745 10.788301914 0.018410957863 -3.1750699566e-05 2.6460926564e-17 3.462046206 -0.0035484038769 
3.1902479168e-09 6.7225191942 9.7917168927e-07 0.15517261285 -2.4568846704e-09 16.818000186 6.6640621934e-29 3.882953016e-14 -9.2215107392e-21 
-3.0626160243e-07 4.2421131259 3.3444036139e-09 1.034024241e-34 6.5215285632e-28 0.65631273911 5.9184314975e-19 0.37922760113 1.8673504645e-05 
1.7513471993e-11 -4.3023432868e-17 -0.034519613312 1.2901129954e-13 7.0584029861e-14 1.2380474494e-05 -1.6845370216e-06 1.8065402497e-08 -1.7521895211e-07 
-1.5368612957e-06 0.0023185250143 -2.6494225497e-05 -2.0741963544e-05 8.6906377084e-25 8.8926062517e-26 15.400505842 0.085538573096 -0.00010699269007 
-1.994279619e-06 0.15564894734 6.2088170503e-16 0.00080978404668 4.471425427e-16 13.052863705 2.8052327072e-29 -0.40737939581 3.7131147984e-25 
-2.0106368003 -1.8119499414 0.036496402106 6.0181360353 3.0394343075e-17 7.5613584297e-13 -0.00058605337932 0.063664443689 -3.675466687e-10 
6.6327485552e-07 5.7438349912e-20 3.1973140395e-14 8.1419962984e-06 -1.0124653842 0.087254734361 -6.9420924602e-09 3.2113179355 3.0679094667e-19 
5.1873764526e-18 8.4795994469e-05 2.115902447e-18 -0.29448725617 4.7826949715e-05 0.013685667566 6.6490051108e-09 5.7169377936e-25 2.3725136364e-05 
8.3907453873e-14 -1.9473032285e-06 0.0057588323541 8.1756629948e-14 3.9191627903e-05 0.00062757690113 -3.1070031042e-16 1.1413932324e-17 3.8355309274 
2.7227261344e-15 -7.6839695684e-07 -2.4901853945e-08 4.2553208027 5.1709828332e-10 3.3711202286e-11 1.4893234117e-32 6.9557422408e-08 4.0129327919e-15 
0.13511601961 -0.0094062191234 3.4747865451e-12 -2.8899998007e-16 6.2134423979e-19 -1.1207030178e-07 7.177712183e-23 -1.3173029023e-07 0.0034839376223 
1.1734273476e-12 -1.6361915423 5.2173147564e-24 -2.2537522704e-12 0.11990266701 -0.016252460619 -0.00090347859031 4.4902570103e-15 -5.7749893442e-18 
-7.0551426316e-06 -3.2322165895e-17 6.98589975 2.7853538795e-05 0.11961990509 -5.8273117022e-18 0.3558484416 1.7474375117e-05 -2.9675011964e-06 
-1.2312216075e-05 4.9349356922e-06 4.0989581238e-20 5.6468293464e-06 0.065026776432 0.00036267944052 -0.014470005586 5.6308459067e-26 -0.0042667987816 
3.8520568447e-06 10.555451611 6.9828127508e-21 -9.4475687484e-07 2.0421536493e-23 1.8780482866e-16 2.3725894515e-08 -0.61307883922 -1.4261821579 
0.00042827173372 0.023224973749 1.0964267237e-15 6.2237424916e-17 3.2973988985e-39 9.1143925975e-221 5.7167385836e-05 1.5142600959e-19 7.6987820167e-14 
0.0027917172216 3.002161493 6.6902073497 0.0025512508544 1.8218739539e-05 10.77411494 2.0998611149e-09 0.0072942750581 -0.032252657282 
1.9328645198e-16 3.8922926249e-09 4.3983032203 -3.1693118214e-06 0.0010395382117 -0.00012079103221 -1.6268751339 8.1758608246e-18 0.0014123751209 
8.800908681 4.2125594863e-21 7.8509848031 6.9003195824e-41 -0.094857638216 -6.6745342502e-13 5.0016965593e-18 0.0061245552461 3.5079904759e-24 
3.2146732437 3.0015498826 -0.0025852807301 -1.814613555e-14 -1.9343766077 0.0013031443313 -2.6659305818e-07 2.1450619733e-13 4.2907061267e-09 
1.0192692092 1.6824742852e-10 -1.5320041132 1.497250199e-18 3.3283429398 2.1978352839e-10 0.048158815798 -4.4138613354e-15 1.5829182467e-12 
0.0051056563834 2.4876214523e-11 6.4735605727e-15 3.6529372579e-21 0.00023072243844 1.0255961418 3.1752817344e-06 -0.0017383048254 -0.0014629786096 
2.0053199509e-23 1.9049636605 2.8439190036e-16 -1.5982147034e-09 2.3662534436e-05 -0.00011146969368 -1.2347083222e-06 6.4451803941 5.2928836345e-13 
1.4004591007e-23 1.9727291848e-25 4.4562790602 1.4583386744e-08 1.0616231759e-06 4.7184017215e-26 -8.6537543276e-11 1.5752835748e-10 0.00023346134412 
6.7555371473 -1.1120720217e-12 8.9757752562e-31 1.3130678233e-06 2.3844059374e-10 -0.00058952508883 2.7851761786e-13 2.3821457085e-05 -5.3422564984e-17 
1.4333605715e-21 1.4297857318e-28 1.8590665536e-27 -1.5106417721 3.1261078661e-21 1.1978324096e-15 2.8425720925e-07 2.3095272306 3.0434401144 
1.5641927159e-13 -2.1428481236e-06 0.0026451803833 3.4509928101e-05 1.51413633 4.7985044793e-31 -2.4684847894e-05 3.3115210491e-06 7.5431222845e-30 
8.4163321671e-18 8.8191433677 -7.6397757334e-07 -0.00066819284714 -0.0022497796116 2.9741681891e-40 0.83847664451 -2.3952654993e-12 -1.1436369566e-15 
0.0089521571537 7.680227498e-16 0.02092533131 5.5769889758e-05 2.5097645906e-05 -8.8454917477e-15 5.4513987497e-17 1.6186354684e-16 -1.6503181579e-15 
9.6869218117e-11 2.7675879141e-16 1.0879733764e-12 0.00012251299491 2.4391420107e-16 5.1428246022e-06 9.8885255482e-26 6.4257547691e-17 4.8160252615e-17 
8.1849488503e-06 0.095245908728 2.8943139704e-28 5.6946468096e-13 -8.6813931031e-17 0.00016007692616 3.2272494439e-08 0.23637364507 7.3896907291e-08 
-0.0011062404805 0.00054625827772 -3.5654351901e-15 0.055783849382 0.058377588389 8.8176442772e-06 0.01183837719 7.1130539986e-06 1.960953447e-14 
1.4895560526 3.5293186558e-22 1.4511296402 -1.151316801e-14 0.44298253801 3.2023324796 0.00066882529479 7.8401195426e-07 3.2585190073e-25 
8.9851127781e-18 -3.1423103226e-07 2.7419000474e-07 -2.018255182 7.333954019e-20 1.5515999276e-23 0.85774376873 8.2712103023e-25 0.00010150879655 
1.2245078143e-19 2.5725370899e-14 4.7325892585e-39 1.0822187594 -1.9804992463e-15 2.2614030508e-35 5.1765970114e-17 -0.31003588914 -4.8848134068e-17 
3.8275748362e-05 9.1776448859 1.0144925578e-05 3.481908632e-26 4.1629557325e-34 7.5710731936e-26 0.23122029035 3.504911448e-27 -3.3905763404e-05 
-2.1397588314 3.2177755994e-05 0.020040858164 0.00033808596311 -1.7778457703 0.03658233116 0.031539866711 0.086684507542 7.0979571023e-13 
0.00085711592048 0.65975771978 0.0052144444878 2.1721395385e-24 -1.0710081835e-14 1.454836325 1.6469629095e-27 0.00012219958727 2.1901066346e-11 
4.7967144102e-28 2.4392109977e-14 2.5716572246e-24 4.500379963e-21 5.4847769107e-08 0.048803780635 -3.0232011745e-06 1.2697371303e-05 5.2826162981e-12 
1.6444684137e-19 1.6927117518e-14 4.7614542562e-20 5.7885658141e-14 3.8233734046e-11 1.1502458034e-13 -3.5564186571e-19 8.956161745e-20 0.31674771589 
-4.3480764102e-08 2.3907522821e-12 2.4659521926e-20 1.1672766595e-13 2.5715805567e-22 0.1091859746 6.1214907222e-27 0.00020381499441 1.9315192819e-13 
-3.1431662448e-12 2.5620600392 9.0012151631e-11 -0.00095828546614 -3.5825184024e-14 3.1719546327e-19 -0.050058281085 1.7981954533e-16 -0.0017327966785 
-1.0935538173e-05 2.7915850139e-23 1.9186124435 -0.00048213632369 -1.8755228954 1.3202811895e-05 0.72469520438 5.6637713045 -2.0925015401 
0.003308959155 0.00032744984366 3.6818786456 0.48194816211 -0.001120493819 -1.2271384294e-15 -1.4075373241 -3.489941131e-15 1.2768580077e-17 
1.4330568142e-06 1.7690344684e-26 2.6861739134e-06 -1.701560898e-06 -2.2310752901e-14 2.2068078345e-14 0.071684233626 3.3042425413 2.7238498502e-24 
2.4846096018e-19 6.8807336878 0.00035134119646 -3.1261589798e-08 4.1695119624e-17 3.6826782079e-14 -3.0968769056e-08 1.9070297931e-15 -1.869282524 
6.650624437e-29 0.050321412496 4.4802554181e-07 0.25808240975 -3.6726043254e-16 1.1276772623e-26 0.011602017398 9.2937395588e-05 7.0091403622e-06 
-5.4480526845e-15 3.5357899236e-14 2.9897607215e-07 -5.299722765e-17 0.66890744356 -0.00036040784315 -0.48335238313 -5.3063087048e-16 0.00085707687382 
0.19047626567 5.5138600189e-07 -1.8375683471 3.4878937323 4.1431943893e-24 -0.9391380587 3.3362654967 1.4983580832e-07 1.7411577325e-12 
4.6602560739e-17 1.133038846e-05 8.7588506289e-05 0.00041031215868 -0.14610457719 5.3642771072e-31 6.4165860314 0.030416325182 5.6271282201e-11 
2.1271840559e-13 3.4882026628 -1.2315344983e-09 1.6495514042 -4.4770929045e-14 -1.9088432154e-13 2.2532760151e-20 0.00016640119474 2.0843482628e-27 
3.3799288395e-18 6.0821891239e-10 5.770859758e-24 3.1281893035e-12 -1.0995154273e-09 6.7967295502e-16 1.0703459383e-25 1.4708025773e-19 2.531313877e-15 
4.0142910747e-22 6.627579513e-26 8.5384894497e-06 -2.4347681904e-13 -0.00091719998318 -9.6880554926e-09 0.00011050953389 -3.0659365684e-06 1.1535109633e-05 
0.00039690016867 2.6718437781e-05 3.063042445e-16 0.10330355977 1.1179666096 2.1533536995e-26 5.6495431902e-15 -0.023809110138 0.020410400129 
3.2384135345 5.9276752086e-206 2.1862474456e-206 5.9524445627e-16 1.065024845e-08 -2.1593240369 0.084746332767 3.8123080759 0.020014885506 
-0.00069041431805 -5.3434627426e-08 6.0798844611 1.1710831804e-05 4.7267628579 1.4189211532e-06 0.19960509288 0.60212064899 0.037376183303 
-0.13409182277 -1.9202995579e-11 0.94700706599 1.3039034493e-15 5.8911051598e-07 9.6235405656 1.6263538256e-13 0.0044835142299 2.5458972782e-14 
6.3097049744 0.00028119879542 5.7251846655e-11 0.066099270452 -0.00011510265738 1.622440536e-14 1.9207497531e-07 7.0728945624 -5.6285856496e-18 
0.00051974693655 1.8375446402e-09 8.1805885957e-20 -0.00013651916621 7.4874423151e-221 -0.00068393296546 -4.4262646088e-11 -9.1991626324e-13 -0.0016266723238 
4.0991419242e-09 -1.0649167013e-14 -0.2205538399 5.9696578855e-12 4.2607388355e-07 0.0059304836971 4.1831645501e-15 2.9589588851e-11 8.7511633458e-17 
3.2350389271e-20 1.003863744e-10 8.1866437296e-19 8.312677087e-24 -1.3181750247 -0.00061053286381 5.8557572062e-22 6.2813789684 1.56441854e-06 
3.7332151584e-06 4.4851931449 0.0019661646293 0.00010691146972 2.4835704461e-31 3.612527918e-26 2.2222116151e-11 4.0560194438e-25 -4.9237342911e-08 
2.1398810836e-08 2.1078238244e-14 1.0216479792e-09 0.0032009609699 2.3878356432e-11 3.1233688468e-10 -0.76621430487 16.941456409 1.174118189e-18 
-0.040120503601 -0.014679173897 1.4315434319e-20 1.306419111 1.6098169509 2.4633242367e-27 2.55209488 2.7132018078e-19 -2.3749086049 
-2.7531896883e-05 0.00018132565357 1.5750078451e-19 -0.013920136286 3.1178807102e-15 6.6142638671e-11 -2.0075382894 2.5797466856e-37 -5.2703084219e-08 
3.0945442263e-06 -2.5095149632e-13 1.1027147031e-06 1.6247973904e-16 0.085123128625 3.3222686701 1.0754115622 -1.6501862898e-08 -0.12246756157 
3.5371179279e-10 1.3031825543e-11 7.1172565295e-07 4.2783265155e-13 2.1933767041e-07 3.0552711392e-05 6.1758091465e-11 -0.049392747086 4.1223480515e-05 