# vtk DataFile Version 4.2
vtk output
ASCII
DATASET UNSTRUCTURED_GRID
POINTS 4342 double
-0.6 -0.6 0 0.6 -0.6 0 0.6 0.6 0 
-0.6 0.6 0 0 0 0 -0.58 -0.6 0 
-0.56 -0.6 0 -0.54 -0.6 0 -0.52 -0.6 0 
-0.5 -0.6 0 -0.48 -0.6 0 -0.46 -0.6 0 
-0.44 -0.6 0 -0.42 -0.6 0 -0.4 -0.6 0 
-0.38 -0.6 0 -0.36 -0.6 0 -0.34 -0.6 0 
-0.32 -0.6 0 -0.3 -0.6 0 -0.28 -0.6 0 
-0.26 -0.6 0 -0.24 -0.6 0 -0.22 -0.6 0 
-0.2 -0.6 0 -0.18 -0.6 0 -0.16 -0.6 0 
-0.14 -0.6 0 -0.12 -0.6 0 -0.1 -0.6 0 
-0.08 -0.6 0 -0.06 -0.6 0 -0.04 -0.6 0 
-0.02 -0.6 0 -8.881784197e-16 -0.6 0 0.02 -0.6 0 
0.04 -0.6 0 0.06 -0.6 0 0.08 -0.6 0 
0.1 -0.6 0 0.12 -0.6 0 0.14 -0.6 0 
0.16 -0.6 0 0.18 -0.6 0 0.2 -0.6 0 
0.22 -0.6 0 0.24 -0.6 0 0.26 -0.6 0 
0.28 -0.6 0 0.3 -0.6 0 0.32 -0.6 0 
0.34 -0.6 0 0.36 -0.6 0 0.38 -0.6 0 
0.4 -0.6 0 0.42 -0.6 0 0.44 -0.6 0 
0.46 -0.6 0 0.48 -0.6 0 0.5 -0.6 0 
0.52 -0.6 0 0.54 -0.6 0 0.56 -0.6 0 
0.58 -0.6 0 0.6 -0.58 0 0.6 -0.56 0 
0.6 -0.54 0 0.6 -0.52 0 0.6 -0.5 0 
0.6 -0.48 0 0.6 -0.46 0 0.6 -0.44 0 
0.6 -0.42 0 0.6 -0.4 0 0.6 -0.38 0 
0.6 -0.36 0 0.6 -0.34 0 0.6 -0.32 0 
0.6 -0.3 0 0.6 -0.28 0 0.6 -0.26 0 
0.6 -0.24 0 0.6 -0.22 0 0.6 -0.2 0 
0.6 -0.18 0 0.6 -0.16 0 0.6 -0.14 0 
0.6 -0.12 0 0.6 -0.1 0 0.6 -0.08 0 
0.6 -0.06 0 0.6 -0.04 0 0.6 -0.02 0 
0.6 -8.881784197e-16 0 0.6 0.02 0 0.6 0.04 0 
0.6 0.06 0 0.6 0.08 0 0.6 0.1 0 
0.6 0.12 0 0.6 0.14 0 0.6 0.16 0 
0.6 0.18 0 0.6 0.2 0 0.6 0.22 0 
0.6 0.24 0 0.6 0.26 0 0.6 0.28 0 
0.6 0.3 0 0.6 0.32 0 0.6 0.34 0 
0.6 0.36 0 0.6 0.38 0 0.6 0.4 0 
0.6 0.42 0 0.6 0.44 0 0.6 0.46 0 
0.6 0.48 0 0.6 0.5 0 0.6 0.52 0 
0.6 0.54 0 0.6 0.56 0 0.6 0.58 0 
0.58 0.6 0 0.56 0.6 0 0.54 0.6 0 
0.52 0.6 0 0.5 0.6 0 0.48 0.6 0 
0.46 0.6 0 0.44 0.6 0 0.42 0.6 0 
0.4 0.6 0 0.38 0.6 0 0.36 0.6 0 
0.34 0.6 0 0.32 0.6 0 0.3 0.6 0 
0.28 0.6 0 0.26 0.6 0 0.24 0.6 0 
0.22 0.6 0 0.2 0.6 0 0.18 0.6 0 
0.16 0.6 0 0.14 0.6 0 0.12 0.6 0 
0.1 0.6 0 0.08 0.6 0 0.06 0.6 0 
0.04 0.6 0 0.02 0.6 0 8.881784197e-16 0.6 0 
-0.02 0.6 0 -0.04 0.6 0 -0.06 0.6 0 
-0.08 0.6 0 -0.1 0.6 0 -0.12 0.6 0 
-0.14 0.6 0 -0.16 0.6 0 -0.18 0.6 0 
-0.2 0.6 0 -0.22 0.6 0 -0.24 0.6 0 
-0.26 0.6 0 -0.28 0.6 0 -0.3 0.6 0 
-0.32 0.6 0 -0.34 0.6 0 -0.36 0.6 0 
-0.38 0.6 0 -0.4 0.6 0 -0.42 0.6 0 
-0.44 0.6 0 -0.46 0.6 0 -0.48 0.6 0 
-0.5 0.6 0 -0.52 0.6 0 -0.54 0.6 0 
-0.56 0.6 0 -0.58 0.6 0 -0.6 0.58 0 
-0.6 0.56 0 -0.6 0.54 0 -0.6 0.52 0 
-0.6 0.5 0 -0.6 0.48 0 -0.6 0.46 0 
-0.6 0.44 0 -0.6 0.42 0 -0.6 0.4 0 
-0.6 0.38 0 -0.6 0.36 0 -0.6 0.34 0 
-0.6 0.32 0 -0.6 0.3 0 -0.6 0.28 0 
-0.6 0.26 0 -0.6 0.24 0 -0.6 0.22 0 
-0.6 0.2 0 -0.6 0.18 0 -0.6 0.16 0 
-0.6 0.14 0 -0.6 0.12 0 -0.6 0.1 0 
-0.6 0.08 0 -0.6 0.06 0 -0.6 0.04 0 
-0.6 0.02 0 -0.6 8.881784197e-16 0 -0.6 -0.02 0 
-0.6 -0.04 0 -0.6 -0.06 0 -0.6 -0.08 0 
-0.6 -0.1 0 -0.6 -0.12 0 -0.6 -0.14 0 
-0.6 -0.16 0 -0.6 -0.18 0 -0.6 -0.2 0 
-0.6 -0.22 0 -0.6 -0.24 0 -0.6 -0.26 0 
-0.6 -0.28 0 -0.6 -0.3 0 -0.6 -0.32 0 
-0.6 -0.34 0 -0.6 -0.36 0 -0.6 -0.38 0 
-0.6 -0.4 0 -0.6 -0.42 0 -0.6 -0.44 0 
-0.6 -0.46 0 -0.6 -0.48 0 -0.6 -0.5 0 
-0.6 -0.52 0 -0.6 -0.54 0 -0.6 -0.56 0 
-0.6 -0.58 0 0.25 -0.58267949192 0 -0.25 -0.58267949192 0 
-0.24969338163 0.58271630631 0 0.58313820224 0.25089999788 0 -0.58073798855 0.23055415423 0 
0.23 0.58267949192 0 0.5822727489 -0.23023532651 0 -0.58232885758 -0.22986293355 0 
-0.13 -0.58267949192 0 0.58091085312 0.12866705289 0 -0.13050081 0.58443309409 0 
0.13 -0.58267949192 0 0.11 0.58267949192 0 0.58128887437 -0.11185352307 0 
-0.58641004823 0.11046978504 0 -0.58097603768 -0.11235367818 0 -0.01 0.5841811861 0 
0.01 -0.58267949192 0 0.58217507245 0.011050809949 0 -0.58206506685 -0.010494327869 0 
0.58255589861 -0.33012459525 0 -0.58098267687 0.33246863147 0 0.33 0.58267949192 0 
-0.58090018381 -0.32734039494 0 0.35 -0.58267949192 0 0.58210978525 0.34851718814 0 
-0.34984356206 0.58269328777 0 -0.35 -0.58267949192 0 -0.58404031657 -0.41125547479 0 
0.58404031657 -0.41125547479 0 0.41 0.58267949192 0 -0.58127371569 0.40748932397 0 
0.43 -0.58267949192 0 0.58287041801 0.42966930632 0 -0.43030661837 0.58271630631 0 
-0.43 -0.58267949192 0 0.49 0.58267949192 0 0.58119455181 -0.49272606834 0 
-0.58196591894 0.48785347999 0 -0.58132747275 -0.49216380446 0 0.58099079541 0.19297246443 0 
-0.18926154554 0.58413656679 0 0.05 0.58267949192 0 0.19 -0.58267949192 0 
-0.07 -0.58267949192 0 0.58212565717 -0.051217328366 0 -0.07 0.58267949192 0 
0.58245912871 0.070013739955 0 0.07 -0.58267949192 0 0.58168449499 -0.17128271923 0 
-0.58574378526 0.05125913651 0 0.17050081 0.58443309409 0 -0.58168449499 -0.17128271923 0 
-0.58573295936 0.16883725031 0 -0.19 -0.58267949192 0 0.49 -0.58267949192 0 
-0.49050081 0.58443309409 0 0.58415322569 0.48921568047 0 -0.49 -0.58267949192 0 
0.53 -0.58267949192 0 0.58203286059 0.53119351335 0 -0.53 0.58267949192 0 
-0.58222913959 -0.53018403998 0 0.58202539473 0.28969699417 0 -0.29 0.58267949192 0 
-0.58451963751 -0.45057023735 0 -0.58267949192 -0.07 0 -0.29 -0.58267949192 0 
-0.03 -0.58267949192 0 0.39 -0.58267949192 0 0.58307204747 0.39068583015 0 
-0.39 0.58373814012 0 0.29 -0.58267949192 0 0.58208722445 -0.45065236781 0 
0.45042926572 0.58129593389 0 -0.58211115223 0.44955595746 0 -0.58432719917 -0.36932980655 0 
-0.58406793967 -0.26883049013 0 0.5820526686 -0.36901719046 0 0.37 0.58267949192 0 
-0.5823078615 0.36998422007 0 -0.39 -0.58267949192 0 -0.58211498987 0.271305057 0 
-0.53 -0.58267949192 0 0.58222913959 -0.53018403998 0 0.53 0.58373814012 0 
-0.58219774606 0.53090792334 0 0.58030324732 -0.28813008885 0 0.29050081 0.58443309409 0 
-0.58188605505 -0.56816348762 0 0.56922649731 -0.58312607391 0 0.58067979276 0.57009350437 0 
-0.57009384201 0.58146184644 0 0.54987108288 -0.58275392226 0 0.53997851381 -0.5653713889 0 
0.51999641897 -0.56536105136 0 0.52999582213 -0.54804088787 0 0.50999870685 -0.54803922237 0 
0.51999908816 -0.53071849415 0 0.4999996325 -0.53071817987 0 0.50999978678 -0.51339758273 0 
0.48999990321 -0.5133975155 0 0.49999994833 -0.49607698138 0 0.47999997526 -0.49607696583 0 
0.48999998726 -0.47875645082 0 0.46999999375 -0.47875644708 0 0.47999999684 -0.46143593722 0 
0.45999999843 -0.4614359363 0 0.46999999921 -0.44411542777 0 0.44999999961 -0.44411542755 0 
0.4599999998 -0.42679491936 0 0.4399999999 -0.4267949193 0 0.44999999995 -0.4094744112 0 
0.42999999998 -0.40947441118 0 0.43999999999 -0.3921539031 0 0.41999999999 -0.3921539031 0 
0.43 -0.37483339502 0 0.41 -0.37483339502 0 0.42 -0.35751288694 0 
0.4 -0.35751288694 0 0.41 -0.34019237886 0 0.39 -0.34019237886 0 
0.4 -0.32287187079 0 0.38 -0.32287187079 0 0.39 -0.30555136271 0 
0.37 -0.30555136271 0 0.38 -0.28823085464 0 0.36 -0.28823085464 0 
0.37 -0.27091034656 0 0.35 -0.27091034656 0 0.36 -0.25358983849 0 
0.34 -0.25358983849 0 0.35 -0.23626933041 0 0.33 -0.27091034656 0 
0.32 -0.25358983849 0 0.31 -0.27091034656 0 0.3 -0.25358983849 0 
0.29 -0.27091034656 0 0.28 -0.25358983849 0 0.27 -0.27091034656 0 
0.26 -0.25358983849 0 0.25 -0.27091034656 0 0.27 -0.23626933041 0 
0.24 -0.25358983849 0 0.23 -0.27091034656 0 0.22 -0.25358983849 0 
0.21 -0.27091034656 0 0.2 -0.25358983849 0 0.19 -0.27091034656 0 
0.18 -0.25358983849 0 0.17 -0.27091034656 0 0.19 -0.23626933041 0 
0.16 -0.25358983849 0 0.15 -0.27091034656 0 0.14 -0.25358983849 0 
0.13 -0.27091034656 0 0.12 -0.25358983849 0 0.11 -0.27091034656 0 
0.1 -0.25358983849 0 0.09 -0.27091034656 0 0.08 -0.25358983849 0 
0.07 -0.27091034656 0 0.06 -0.25358983849 0 0.05 -0.27091034656 0 
0.04 -0.25358983849 0 0.03 -0.27091034656 0 0.02 -0.25358983849 0 
0.01 -0.27091034656 0 -1.7474921972e-14 -0.25358983849 0 -0.01 -0.27091034656 0 
-0.02 -0.25358983849 0 -0.03 -0.27091034656 0 -0.04 -0.25358983849 0 
-0.05 -0.27091034656 0 -0.06 -0.25358983849 0 -0.07 -0.27091034656 0 
-0.08 -0.25358983849 0 -0.09 -0.27091034656 0 -0.1 -0.25358983849 0 
-0.11 -0.27091034656 0 -0.12 -0.25358983849 0 -0.13 -0.27091034656 0 
-0.14 -0.25358983849 0 -0.15 -0.27091034656 0 -0.16 -0.25358983849 0 
-0.17 -0.27091034656 0 -0.18 -0.25358983849 0 -0.19 -0.27091034656 0 
-0.2 -0.25358983849 0 -0.21 -0.27091034656 0 -0.22 -0.25358983849 0 
-0.21 -0.23626933041 0 -0.23 -0.23626933041 0 -0.22 -0.21894882233 0 
-0.23 -0.27091034656 0 -0.24 -0.21894882233 0 -0.23 -0.20162831426 0 
-0.25 -0.20162831426 0 -0.24 -0.18430780618 0 -0.26 -0.18430780618 0 
-0.25 -0.16698729811 0 -0.27 -0.16698729811 0 -0.26 -0.14966679003 0 
-0.27 -0.20162831426 0 -0.28 -0.14966679003 0 -0.27 -0.13234628196 0 
-0.29 -0.13234628196 0 -0.28 -0.11502577388 0 -0.3 -0.11502577388 0 
-0.29 -0.097705265805 0 0.22 -0.28823085464 0 0.1 -0.28823085464 0 
-0.1 -0.28823085464 0 -0.22 -0.28823085464 0 -0.24 -0.28823085464 0 
0.02 -0.28823085464 0 -0.31 -0.13234628196 0 -0.31 -0.097705265805 0 
-0.3 -0.080384757729 0 -0.28 -0.080384757729 0 -0.29 -0.063064249654 0 
-0.31 -0.063064249654 0 -0.3 -0.045743741578 0 -0.28 -0.045743741578 0 
-0.29 -0.028423233502 0 -0.27 -0.028423233502 0 -0.28 -0.011102725427 0 
-0.3 -0.011102725427 0 -0.29 0.0062177826491 0 -0.27 0.0062177826491 0 
-0.28 0.023538290725 0 -0.26 0.023538290725 0 -0.27 0.0408587988 0 
-0.25 0.0408587988 0 -0.26 0.058179306876 0 -0.24 0.058179306876 0 
-0.25 0.075499814952 0 -0.23 0.075499814952 0 -0.24 0.092820323028 0 
-0.22 0.092820323028 0 -0.23 0.1101408311 0 -0.21 0.1101408311 0 
-0.22 0.12746133918 0 -0.2 0.12746133918 0 -0.21 0.14478184725 0 
-0.19 0.14478184725 0 -0.2 0.16210235533 0 -0.18 0.16210235533 0 
-0.19 0.17942286341 0 -0.17 0.17942286341 0 -0.21 0.17942286341 0 
-0.2 0.19674337148 0 -0.22 0.19674337148 0 -0.21 0.21406387956 0 
-0.23 0.21406387956 0 -0.22 0.23138438763 0 -0.24 0.23138438763 0 
-0.23 0.24870489571 0 -0.21 0.24870489571 0 -0.25 0.24870489571 0 
-0.27 0.075499814952 0 -0.22 0.26602540378 0 -0.2 0.26602540378 0 
-0.21 0.28334591186 0 -0.19 0.28334591186 0 -0.31 0.0062177826491 0 
-0.23 -0.16698729811 0 0.11 -0.23626933041 0 -0.2 0.30066641994 0 
-0.18 0.30066641994 0 -0.23 -0.30555136271 0 -0.25 -0.30555136271 0 
0.39 -0.37483339502 0 -0.09 -0.23626933041 0 -0.19 0.31798692801 0 
[...]
CELL_DATA 8442
FIELD FieldData 1
flux 1 8442 double
3.1621370039e-22 2.8041485706e-10 1.8056108758e-07 0.026559608114 0.0083536576995 2.5241920936e-22 0.00012241547884 5.598408203e-07 0.075289094179 
0.0024182895717 8.2350896219e-11 7.8551883198e-12 0.00021258760711 0.00022050977756 1.7052223873e-28 1.6822273323e-10 6.7894021462e-17 0.059778012634 
2.5581378746e-13 1.4540413304e-05 0.00065281114231 1.6969653917e-28 5.6009141789e-24 5.0621803807e-21 3.6515351311e-09 5.2361615681e-24 2.2823756467e-19 
1.6927871349e-09 1.0877776566e-11 0.0042871792315 7.3128065805e-12 6.2377401134e-16 0.0060490755103 0.0058596885857 0.0092381265266 0.00049707034886 
0.0004968953359 0.0047599224478 1.1614706721e-05 1.2155080665e-05 2.0599921221e-09 8.9088218742e-30 7.0324061352e-16 0.15617242965 3.5863171432e-07 
3.2470989628e-07 3.336110669e-07 2.5107100185e-27 2.4781062117e-27 1.5327628508e-13 8.5390563915e-09 4.2915841936e-13 6.4168990379e-26 6.0065907183e-26 
1.9306025479e-13 0.0022102763749 2.6754351787e-14 0.00151389296 0.0014361508242 0.0013939057101 0.0047889762442 1.9221341611e-34 0.013422620429 
0.0048123360083 4.8570043431e-20 5.768938123e-11 1.0255546045e-16 8.7490291091e-31 2.8313757301e-08 1.7039121959e-05 1.434976294e-05 1.7420456495e-19 
7.5907811153e-09 0.00089874215902 1.2472568245e-09 6.863814797e-23 0.01080002744 0.12172662159 3.8537363571e-05 3.9532916658e-05 0.0049518993228 
0.0062308865534 1.5068022877e-22 1.5480154199e-05 2.6075915956e-06 0.00015874857074 0.00047406435614 2.2971601825e-27 2.3006216636e-27 8.2085275738e-05 
8.3004408406e-05 4.5692302337e-09 0.030683757786 1.0917022503e-15 1.049229116e-15 0.0097963963985 0.014744659735 1.083055635e-05 1.0542967294e-05 
1.0730035447e-11 8.7201700953e-35 1.3113291944e-09 3.3830489254e-08 2.104853715e-08 2.0682228386e-18 3.3827974661e-08 2.0592122584e-13 0.010386770673 
3.5921075616e-26 3.5075775565e-26 4.3059278071e-29 2.971102473e-14 4.8750496929e-24 4.5252256452e-24 2.7267763456e-21 1.5772916294e-18 0.08310205292 
7.7222411565e-06 0.00025650193869 0.00026536809312 0.14897332295 4.8555865924e-11 0.16294616801 1.459250747e-05 1.4826256103e-05 0.0010481347405 
0.00015202877608 0.00015029021122 0.0079897793779 0.0044157065398 8.2462939759e-09 1.3244918149e-06 4.4443278489e-31 1.6518518339e-12 0.0020339126967 
2.1887182243e-13 2.1616552388e-21 2.5184510528e-17 2.4308318528e-17 4.977970842e-11 0.0022750722929 4.1622091303 4.1607223766 0.031047058586 
3.0410275191e-05 3.0043280646e-05 6.3076048235e-29 4.9352791027e-11 0.00022736734727 1.4751926461e-08 0.19834334028 2.4771778975e-14 1.6269975881e-13 
4.421752127e-25 4.3066454728e-25 4.7773849966e-25 2.7123317611e-24 0.0054072178857 5.6111188159e-07 5.828003158e-15 6.3912125137e-15 0.0051483474074 
4.1869973441e-24 4.2987006051e-24 1.3195178608e-08 9.7546987826e-17 6.0687773862e-23 5.43842087e-11 0.0065755132733 0.070750748917 3.6516185911e-21 
1.3572982394e-07 0.024917248987 4.1776304431 4.1779257515 5.5730194507e-23 4.1808404235 4.1789283982 7.1403512853e-06 5.4242840187e-23 
4.3521611392e-14 0.00020072073581 0.0001986542314 3.8562350853e-32 0.0612058678 1.8166826543e-10 1.1129621963e-32 2.0431160972e-12 2.0844037109e-18 
4.4027892027e-21 1.8510805979e-29 1.8255250473e-29 1.7576412697e-13 4.1221192215e-21 4.4807610789e-20 6.9844753753e-14 3.5695418574e-10 4.3581299969e-07 
1.7430512771e-18 3.0870550685e-05 2.8824502447e-09 3.2357818294e-07 0.0028734565917 0.00078295017569 0.00023411048558 0.004144843374 0.00072919086115 
0.0064962355526 0.0027397175002 0.00025267304059 0.00014512216408 0.0069316906719 4.515755889e-05 0.00058159461286 0.00044462991613 5.0125491912e-06 
0.0042611559814 0.00088867567908 8.425814132e-16 0.0016961837079 1.2003451355e-22 8.3090588897e-20 9.3931372295e-20 2.0351635229e-17 3.6607551007e-20 
1.5523466098e-08 3.7570542216e-05 0.78643496158 1.3357103315 1.3548240021 0.78971404065 1.5990289497 0.33586021334 1.5089730345 
4.2174808499e-10 4.7322024195e-07 0.0043868567017 0.086400652465 0.17249013011 1.3505099816 1.0904746768 1.4705779094 1.0268439068 
1.4351342316 1.680103872 1.0091082677 0.0012174772504 1.2008009228 5.4227383424e-09 1.3157093007 3.800023418e-06 1.1366729112 
0.95783727149 2.6953985839e-09 0.68237165397 0.020617027626 1.3219638266 0.034747406422 6.0880623658e-08 2.6770635215e-11 1.0965090012 
1.4406898903e-17 1.0230944541 1.1031101534 0.64127507216 0.41156685867 0.013229932147 0.84720549127 0.11785738458 0.70964851568 
1.3872719425 1.2273049358e-05 0.72163532053 0.89439694986 0.034904258181 0.94340701599 0.7471022978 9.295832174e-08 1.7586347413e-24 
2.674489702e-26 0.95760909728 1.6243091225e-05 7.3012683531e-05 1.4018437321 0.63566585194 1.2567268411 4.7122416827e-10 2.0545549997 
1.8072499611 0.6195486398 0.32152443841 1.111568459 1.6094353962 0.00027711818881 1.7368640715 0.71649422138 0.69471987821 
1.6130081509 0.80881409644 1.3735649559 2.6317316902e-23 1.4693957644 0.33766974276 1.3072448733 1.7833680099 0.86375965311 
1.9080414106 0.13450491905 0.33002637876 2.3271909282e-09 1.4968099758 0.014246140734 0.56308824571 0.079798086746 0.84895633859 
0.28861139993 0.59101827855 1.1625170324 1.7577014048 0.74471609516 0.63018349868 0.17425060018 1.6181190055 1.7531161577 
0.14923548431 1.6290964768 0.63102144263 1.4956358805 1.5323863449 0.094136490157 1.4117957482 1.0565461463 0.16572278932 
0.47159895618 2.3816546103 0.68057824925 1.2642423077 1.7086125776 1.6368244472 1.6297473824 0.35638785896 1.2885707145 
0.44317845828 1.1132645162 1.298284928 0.73456327889 1.133422792 1.2734090182 1.374443626 1.0109200599 1.616923217e-26 
0.8047416072 1.7425737542 0.3265925305 1.2178772105e-07 1.2281797643 1.1448541636 0.87072490931 0.85440396659 0.1488720049 
1.5255165444 0.88031168686 1.7034961395 0.00019311309075 1.1029302234 1.7300460437 1.1088088116 1.1362371514 0.01558900506 
1.120084994 0.2029470021 0.11817257943 1.1365825217 1.5352107168 1.1164220334 1.407932792 0.6359614924 0.99861949077 
0.14880784188 0.93221371225 0.046332665009 2.4043276337e-11 1.672917137 1.2194823167 0.5727788531 0.74905817142 0.88185169536 
1.5236591019 0.57457108695 2.6789164255e-09 0.94316002937 1.0719097485 1.6162406067 0.50705080676 1.3314910826 1.6092957018e-13 
0.028729461422 0.79177890924 0.19471911262 1.0063549244 0.84695362043 1.2791367887 0.97434832236 4.5969372237e-10 0.85443630403 
1.0249101313 5.2489462387e-10 0.6776307413 0.19732391078 1.5300423377 1.6895967703 1.2196102287 0.22488112433 1.2306332203 
0.72461734627 1.8890968026 1.5991411443 0.17426285923 0.10383202854 1.4975602605 1.2774451837 1.438158406 1.3742149598 
2.8823314915e-08 1.1308238083 1.0026361022 0.66720465522 1.4160336931 1.6672474224 0.58061391606 0.069180332409 0.01134712572 
1.4722748993 5.2319190455e-10 0.84307035024 0.096682884572 0.64128876625 1.8847336408 0.22399111298 2.9504649721e-09 0.038081776165 
0.034335740546 0.9171329928 1.3902428533 0.7220324419 1.0012212594 1.6726709348e-13 1.5745894536 1.7268564474 0.73882746645 
0.29910876738 2.8501831823e-09 1.3342253411 0.9967340507 8.9921007959e-28 0.75701920727 0.84255300408 1.0473098396 0.10602979479 
1.3602314881 0.71564509866 1.2453655045 1.712216005 0.70302768428 0.77004452845 1.0026640981 0.0023604127577 1.0282379635 
0.70254130146 0.6356136225 0.68888484421 0.017707450098 1.7379547972 0.071217048329 1.3765681132 1.6854476666 0.99933905101 
0.89608690393 1.222370319 2.1840528583 7.2352030087e-06 0.0035133830407 0.60185955668 1.0986012922 0.67753374998 0.001573768676 
1.3728889763 1.1231548506 0.47033552611 1.775287807 0.98483557879 1.1512284123 5.1012076253e-12 0.82448807491 2.6571672619e-09 
1.339226854 2.0710608834e-13 0.63681967975 1.4396846671 1.0463648291 9.5290412941e-05 1.5634923379 1.1731729932 1.5979808504 
2.8598870289e-24 1.0412785982 0.86189745998 0.0092310426248 0.72267647261 0.70886906204 1.1751947365 0.8928245808 1.603539863 
3.3116397208e-07 0.96814776463 0.6364336485 1.2569829112 0.83182842234 0.83395691826 1.2297352115 3.5801617057e-05 0.058881939528 
1.1991640364 0.95458500139 1.6863760922 1.8201071478 0.70967850297 1.4354203237 1.7920618545 1.6230402501e-06 1.0738343834 
0.00075659756368 1.7546569626 0.61197944188 1.5226649346 1.3286972397 1.597901082 1.8670995391 1.6129023563 1.5992195193 
1.5304986283 1.0905149843 0.6413136319 0.88208488834 1.1937515786 0.027896569473 1.7808065888 6.8552400665e-14 1.8906669471 
0.23737100649 1.8020559031 1.5957668157 1.0227451714 0.88569188367 0.020323771356 3.100580327e-05 0.049930503817 1.296223034 
0.65959416141 0.99489156115 0.18249122941 0.90452554361 1.2600413628 5.1911193253e-10 0.69342385021 0.090878800064 0.70761231041 
4.011878207e-12 0.9137776443 0.66088556394 0.76607577789 0.95198927652 0.71260059414 1.4116107335 4.8272976131e-12 1.5090622842 
0.11982272914 1.1212219897 0.8634360325 3.0898156947e-11 1.1869827784 0.13736779723 4.1422453021e-28 1.5987796173 1.7444641062 
0.12631008491 1.531780073 1.2081170262 1.102734042 1.6463031431 1.3055237997 0.03928972958 0.93704319334 1.6542677827 
1.9192688109 1.5500319649 0.64776449044 0.7668213347 0.49142838097 1.0846560776 2.7066154192e-14 0.042008235192 0.00010993415827 
1.4309861084 0.8184925824 0.8197764967 1.545440367e-20 1.826880432e-13 1.0063794579 0.00082582307482 1.0101577483 1.6819487232 
0.28575139458 0.92085533252 1.0985317991 0.22965864295 0.015151807811 1.4820131836 1.4350369697 0.85589522813 1.4590650205 
1.1454520881 1.8054470122 1.4702567516 1.2003723178 1.4748120932e-10 2.7855838567e-11 0.9560800738 1.0987233572 1.5954972589 
1.3917717391 0.99026136249 1.453247137 0.92143313819 0.007278323989 0.87529024115 3.0633486692e-14 0.81036043453 2.7070348708e-11 
1.0686817458 1.0831816446 0.93404716698 1.3732673097 0.003223263996 0.058739772042 1.135624914 0.74902842864 1.0268955791 
0.95487481513 0.019826702766 0.03498855348 1.4499778647 0.7432659355 0.75340422726 1.3236274605 0.9468885504 4.3989772943e-05 
0.001581307478 0.90370266975 3.4835988811e-05 0.78704606159 1.480900657 1.0919132227 0.88599020845 4.7528580861e-10 1.6361225339 
0.01258808644 1.2285018001 1.7910030381 0.028387530158 0.77865610382 0.75572290532 0.041491886447 8.5781872755e-05 1.1161508752 
0.0014762680692 1.2207652946 0.97172074781 0.82233313847 0.82969132517 0.29802624677 5.4547153795e-18 1.6707307671 0.058505887469 
0.75627957447 1.0419034972 0.63968751223 1.0532108985 0.0058119691408 1.2226356408 2.6587258396e-09 0.71323373352 0.67182561695 
0.39280731963 0.90436626646 4.5936819252e-10 1.1268491083 0.84841892065 1.1606169885 1.7305972782 0.24510351089 0.014411953069 
1.0986820341 0.046704157522 0.71761899432 1.002229904 0.63098600862 0.43568105028 1.0498086183 1.5976107617 1.6404680381 
0.95126575144 1.405217182 2.0413105467e-06 1.651595074 0.65966238825 0.86031453197 0.87408745805 1.1015555961e-12 1.0711517231 
1.8067787572 0.74915478982 0.0081786029409 1.1354048755 2.1615427391e-09 0.079875544107 1.660007172 0.70919767737 0.76463061487 
1.4657523647 0.77700245217 0.00156235165 0.075211358486 3.7445933613e-25 2.8308380817e-30 1.6507080702 0.017461998081 0.66651428116 
0.78451581438 1.2669003342 0.71742054629 1.3964224204 1.538946086 0.99237581984 2.1770863366 1.70637551 0.95001647173 
0.0010401619415 1.7469097887 1.3196952043 1.0645398844 0.96666758392 0.89435511191 1.3258718369 0.00013769727827 0.71424933398 
1.7445190964 0.0001381877858 1.6103171971 1.6493725649e-28 0.79229130277 0.81054868854 1.3165614283e-05 0.91965953094 5.2061794127e-10 
0.78879646534 1.0606939926 1.4498440624 0.47478093671 1.1819448699 1.1892213696 1.4221247004 0.024927050632 1.1732656714 
0.91838073763 0.539174062 1.7280511459 2.0466190476e-05 0.90539940239 0.5305437395 0.90816671064 0.28596976897 0.049877546095 
0.99315136272 0.23230295142 0.15566072028 1.2269162099e-05 0.83788459907 0.76619279445 0.96927033899 1.8307535049 1.7178238246 
5.4227370146e-09 1.0413357507 0.16228562549 1.0633892692 1.4505790485 1.4955924103 0.87418262195 1.5335670476 0.28785032668 
3.2745147856e-09 1.123502731e-11 0.80239356216 1.0962372464 1.7489047693 1.3146436671e-11 1.0512763617 1.4096536162 1.5088494812 
1.5889066403 1.4103374645 6.50794373e-17 1.6597071129 1.0304675745 1.3840284213 0.024989541726 1.4492536302 0.071608556791 
1.0695864807e-06 2.063718079e-14 2.054208414e-13 1.6118402815 1.2118254904e-07 0.024032253593 2.1471103513 1.1412408762 0.93322970541 
0.15556788974 1.0793543286 0.82229452756 1.5174273012 0.83825379091 4.0426973534e-16 1.337919143 1.0369065241 2.307507899e-15 
5.4187113781e-05 0.90285346772 0.87571963679 1.6348229988 1.1455619301 8.1119052475e-27 0.85087152933 0.63532572281 1.0472548444 
0.9249071626 0.0061927437799 1.5530746721 1.4391165422 0.99701252186 0.58984023213 0.049538970398 0.00050628409039 0.030512995188 
0.84497475189 0.00029190741703 0.052914549366 0.81840198892 0.0022266368451 0.56686891958 2.6981056323e-11 0.00046450795429 0.00031671114389 
0.74294978835 1.2845157141 2.0632852405e-14 0.061922129791 0.7094514358 1.4840230942 0.72339783201 0.75274178202 1.1833585843 
1.4177738955 1.1332189357 1.4631685739 0.61966109777 1.44819791 1.3294975932 1.1696364589 1.4311761522 0.010567076064 
0.99002972351 6.0880621427e-08 1.0461646692 2.1032920847 0.83067367685 0.82874079414 1.7197869084 0.98524844499 3.0928561859e-11 
4.4899581149e-05 1.1369209638 1.7554431992 1.8523880788 0.00031751100025 2.0407959199e-08 0.76490259601 2.7047631713e-11 1.3338863351 
0.00040889311311 0.0039023547789 5.1949863417e-26 0.85031289302 1.8659970867 2.0667197675e-21 9.5704711331e-05 0.71186257801 0.041596487374 
1.7221937496 0.97950769951 0.83954517783 3.9567550882e-12 2.5852318114e-20 3.9534401442e-12 1.1607726766 4.1321894485e-12 1.3154017166 
0.86087167362 1.5451816005 0.86238725389 0.99807507472 0.70229452192 0.90079326157 0.66407225281 0.83977710503 0.95703642125 
1.2968710163 0.88633282844 0.79114632483 3.5050489778e-10 0.19128606868 0.91373178715 8.7722343134e-13 1.2753367605 0.28355370652 
6.8553987416e-14 0.046684851246 8.346622546e-08 3.8475305108e-07 2.0792038751 0.83605834593 1.0663653977 0.67673942138 0.14658565415 
4.1640771622e-05 0.10496834553 0.00031366199499 0.011054027189 0.54523917124 0.92664819128 0.045903515836 0.0037631961272 0.77318824004 
0.84315078308 0.2761064878 0.00013015394118 0.078392519376 2.6823951601e-08 0.67558176474 1.815915295e-13 0.92189736356 0.061975567875 
1.1689208533 1.1216210649 0.4763273258 1.119720098 2.3877004943 0.0088795758738 0.83642326322 0.00072079926281 1.2671818506 
0.95448298647 2.0856532702e-09 0.95782452507 1.708834061 1.504301756 1.2728110913 0.72909705103 1.4385817088 1.9951173764 
1.4332509268 1.5979943877 1.1756245869 0.81628475697 1.7210209454 0.025547372554 0.76468916663 0.69708741575 0.021989607588 
1.4720840098 1.2508691926e-12 1.1448847261 0.95921966657 0.14237896283 0.046732376938 0.84307145328 0.78927227205 2.3725824429e-09 
0.00027845813029 0.74606080249 0.76458010987 1.684035667 0.0001930972135 0.17556941637 0.94287821964 0.0012681818359 1.5042567532 
2.3076095911e-15 1.2734114636 0.60043640198 0.79179809364 0.51148819812 1.6722374869e-13 0.76865920354 1.5745287919 1.5561854543 
0.68310725853 0.075072704453 1.2584251437 0.01289124929 0.97747194667 1.6180021515 0.67347082288 0.11739354591 1.6723699549 
0.80640284876 1.571106885 1.3334845736 0.80581202134 8.3531296985e-10 0.74511334218 0.94695308055 1.6068379514 0.39769609122 
0.70492419001 1.0030918514 1.2820378794 0.69178454505 0.80870156594 2.2544498943e-16 1.5891299658 1.0387072823 0.29795998806 
0.07831993493 0.73562092005 0.48543277171 0.92391633353 0.35189669066 0.15737910054 8.8925333407e-05 1.3550437357 2.7912434693e-12 
0.0001902773011 0.770617723 1.3865115166e-09 0.37620947575 0.88954040767 0.14217404094 2.291481962e-11 4.7288189175e-06 0.0031030042473 
2.1698157962e-07 3.3104912954e-12 1.3047825461 2.5390828684 1.5823349746 0.75513131044 1.2231779518 0.86635031266 1.7475334724 
1.1661401698 1.5094974212 0.00062225627434 0.72407463948 0.87575758689 1.2544849232e-11 0.0064053885045 1.1244805093 0.6512866576 
1.1305760415 2.2138527839e-28 3.7287507026e-25 0.015331808462 1.7591002525 0.82279930265 1.1614390946 0.82491522486 1.1282982304 
1.5821254814 0.87745630394 1.2085652652 0.67623839031 0.78685558951 0.51971141243 0.7693258479 0.71294117768 0.80659476587 
0.77914723638 0.84881692827 0.7475662106 0.44440205267 1.1070356381 1.5265854426 0.62889821979 1.7949288679 0.0070758374867 
1.4250629572 1.6089400316 0.81356836363 0.79168194144 0.83769757405 0.075059485861 1.0669873036 0.74624710982 0.25554987105 
0.94204224059 1.0368386033 3.4315070204e-05 1.4427116648 2.3521381441e-31 0.99386056512 0.37783179077 0.81060030816 1.0116576489 
1.2051503037 1.6257744646 0.70538283737 1.1101789369 1.54879762 0.8664197852 0.036564933879 0.2462133353 0.1088655726 
8.1930980435e-07 0.48898340157 0.034548473467 2.661592957e-08 0.69528189782 1.680055363 9.6369616103e-09 1.2938133257 1.0839628004 
1.6500041052 0.80236342189 1.6765185776 1.5802030719 1.4426495559e-16 7.7198114299e-11 0.22657592841 2.3495448191e-10 1.1361689996 
1.2187522119 0.0078433134174 0.96129604575 1.0305560746 0.21877519886 0.47461825973 0.71637786162 1.2297210029 1.2233169346e-05 
1.0662838262 1.2340004847 0.00034774506757 0.74144224528 0.82895356076 1.6012066162e-13 0.91177350517 4.1640771529e-05 1.2900844485 
1.4640676226 0.69667415325 6.1639661311e-07 1.0901902572 0.15201237939 0.89512969315 2.1866216104 3.3106499064e-23 1.8712491451 
1.6647174005 0.17776849149 1.7092175271 0.00018610067913 0.80961661404 1.0233616411 0.86557588706 0.77918334263 0.83841577402 
0.92691365631 0.87632677927 1.8460473166 1.2953021625 1.9439050223 0.60391165717 1.0515462566 0.83633259822 1.2496531285 
0.75227843607 0.85394925317 1.1823136749 0.015630534805 0.87186212829 0.00066248320997 1.0693159685 0.21513603581 0.011108817868 
0.001778890556 0.80637349529 0.73616220486 1.3423235784 1.0063521682 0.33840819636 2.1864223327e-13 1.4813658112 1.8968269955e-18 
1.4640675425 0.7363157861 0.84088817781 0.65895767716 0.67211577585 0.70245998146 1.2190024995 0.95997229038 0.75154130201 
0.018770683781 0.0035390004958 0.00034044487884 1.152298949 0.55499770083 1.4830891496 0.56307737858 0.034960262137 0.0073575377146 
1.2223775033e-05 0.31663666459 1.2254055462 1.6835953542 0.67287652382 0.77161867543 9.5229156162e-16 5.5573081145e-10 0.034643009185 
0.87243927407 1.8258146318 1.8019561791 6.6117261823e-24 1.176944835 1.4397747047 0.1370524476 2.4114578553e-07 0.93777446619 
1.2492879785 0.001107057548 1.4573859029 1.7212301382 1.2430469361 1.042844525 2.2211340117e-05 8.6472844647e-09 7.7493691612e-21 
0.20508059401 1.5336564362 2.2580208489 0.76468665599 0.034124461671 0.87224127351 0.8921573873 0.016734530575 0.048184173066 
0.20964622308 0.22452841769 0.15247895922 0.69582571644 0.82519304591 1.3554709073e-07 0.62425152003 4.7802418624e-06 1.0258841176 
0.030072417944 1.1896065189 0.04621934386 1.0104074333 1.4889758578 6.7680332238e-10 1.0818907092 0.81973587815 0.022156045623 
1.6091379875 0.62000126767 0.91076882435 0.9552040344 2.8608431572 0.027902999546 1.4564091368 0.11865930736 0.030773601981 
0.69388996116 1.1617323952 0.80010109559 0.66620303177 1.1875658067 1.006074232 0.073113105918 1.2833904461 0.00046229780409 
6.931087657e-15 1.1335451183 0.39091486988 2.2677445006e-08 4.6846393396e-10 6.2903981512e-16 8.7540979186e-11 9.924869225e-05 1.7237771121 
0.88722180766 3.2081617067e-13 0.10932713567 0.015924854755 0.2554258945 1.1971846735 2.6963365599e-06 1.4353757282e-23 5.7965084033e-07 
3.0288373185 0.68258488106 0.00012993613103 1.1155492738 0.7172857359 0.81839381853 0.047402999071 0.99122322792 0.79223645439 
2.5969096482e-06 6.827828459e-05 2.3295279544e-09 1.3695245499 2.8856949003 1.2745441288 0.0063711968672 2.8653765648 0.13236287369 
1.2178902438e-07 0.00015174787924 0.00047647404327 0.0070758374866 0.8467989316 0.73399282933 1.0936848268 1.1820786094 2.3763081613e-22 
0.8725788404 0.98594945087 1.2418016741 1.0899426919 1.758576412e-07 1.9816249733 9.0452698107e-05 0.98445633611 0.2921503955 